0,0,0,0,0,0,0,0,0,0,0,0,0,0,0,0,0,0,0,0,0,0,0,0,0,0,0,0,0,0,0,0,0,0,0,0,0,0,0,0,0,0,0,0,0,0,0,0,0,0,0,0,0,0,0,0,0,0,0,0,0,0,0,0,0,0,0,0,0,0,0,0,0,0,0,0,0,0,0,0,0,0,0,0,0,0,0,0,0,0,0,0,0,0,0,0,0,0,0,0,0,0,0,0,0,0,0,0,0,0,0,0,0,0,0,0,0,0,0,0,0,0,0,0,0,0,0,0
0,2.45467e-06,6.55461e-06,6.85969e-06,1.37217e-06,-1.17954e-05,-3.54389e-05,-6.74049e-05,-0.000103326,-0.000148566,-0.000200481,-0.000254059,-0.000315931,-0.000381457,-0.000446714,-0.000519249,-0.000592974,-0.000664963,-0.000743483,-0.000820987,-0.000895852,-0.000976774,-0.00105506,-0.00113032,-0.00121108,-0.00128814,-0.00136203,-0.00144072,-0.00151528,-0.00158666,-0.0016619,-0.00173319,-0.00180132,-0.00186912,-0.00193872,-0.00200499,-0.00206984,-0.00213197,-0.00219216,-0.00225172,-0.00230981,-0.00236545,-0.00241748,-0.00246947,-0.00252085,-0.00257028,-0.00261633,-0.00266097,-0.00270073,-0.00274141,-0.00278151,-0.00281585,-0.00284596,-0.00287734,-0.00290797,-0.00293579,-0.00296212,-0.00298105,-0.00299987,-0.00302005,-0.00303595,-0.00304421,-0.00305127,-0.00305857,-0.00306505,-0.00307097,-0.00306979,-0.00306537,-0.00306149,-0.00305255,-0.00304066,-0.00302906,-0.00301291,-0.00299326,-0.00297347,-0.0029498,-0.00292252,-0.00289473,-0.00286323,-0.0028284,-0.00279258,-0.00275356,-0.00271114,-0.00266777,-0.00262111,-0.00257133,-0.00252056,-0.00246647,-0.00240965,-0.00235167,-0.00229065,-0.00222688,-0.00216247,-0.0020946,-0.00202459,-0.00195246,-0.00187828,-0.00180316,-0.00172642,-0.0016476,-0.00156787,-0.00148716,-0.00140504,-0.00132237,-0.00123833,-0.00115257,-0.00106711,-0.000982006,-0.000897087,-0.000813353,-0.000729129,-0.000646967,-0.000567232,-0.000488933,-0.000414677,-0.000344185,-0.000277391,-0.00021699,-0.000161469,-0.00011302,-7.25763e-05,-3.88063e-05,-1.45561e-05,-3.54129e-09,7.04961e-06,6.48957e-06,3.07557e-06,0
0,3.00829e-06,2.34395e-06,-5.27101e-06,-2.46643e-05,-5.62496e-05,-0.000102303,-0.000165111,-0.000240747,-0.000324711,-0.000423733,-0.000531782,-0.000645129,-0.000770606,-0.000900643,-0.00103305,-0.00117496,-0.00131762,-0.00146031,-0.00161054,-0.00175878,-0.00190563,-0.00205828,-0.00220705,-0.00235343,-0.00250412,-0.00265004,-0.00279291,-0.00293861,-0.00307942,-0.00321671,-0.00335523,-0.00348947,-0.00361924,-0.00374766,-0.00387463,-0.00399878,-0.00411881,-0.00423512,-0.00434858,-0.00445751,-0.00456521,-0.00466858,-0.00476667,-0.00486132,-0.00495467,-0.00504411,-0.0051282,-0.00520983,-0.00528301,-0.00535563,-0.00542635,-0.00548937,-0.00554543,-0.00559966,-0.00565199,-0.00569914,-0.00574312,-0.00577747,-0.00580861,-0.00583914,-0.0058636,-0.00587899,-0.00588913,-0.00589744,-0.00590241,-0.00590445,-0.00589821,-0.00588594,-0.00587088,-0.00584964,-0.00582287,-0.00579311,-0.00575726,-0.00571558,-0.00567071,-0.0056199,-0.00556353,-0.00550361,-0.00543809,-0.00536712,-0.00529263,-0.00521243,-0.00512722,-0.00503822,-0.004944,-0.00484459,-0.00474204,-0.00463384,-0.00452122,-0.00440538,-0.00428415,-0.00415895,-0.00403074,-0.00389749,-0.00376027,-0.00361963,-0.00347524,-0.00332881,-0.00317893,-0.00302573,-0.00287074,-0.00271384,-0.00255505,-0.00239549,-0.00223395,-0.00207103,-0.00190885,-0.00174759,-0.00158744,-0.00142975,-0.00127359,-0.00112189,-0.000974899,-0.000833305,-0.000699187,-0.000573142,-0.000456308,-0.000351151,-0.000256832,-0.000176553,-0.000111225,-5.90365e-05,-2.38841e-05,-3.72934e-06,3.83912e-06,1.89431e-06,0
0,2.17356e-06,-5.68604e-06,-2.74862e-05,-6.4019e-05,-0.000118658,-0.000190495,-0.000282078,-0.000393984,-0.000521528,-0.00066074,-0.000817635,-0.000985013,-0.00116042,-0.00134898,-0.00154275,-0.00174035,-0.00194759,-0.002156,-0.00236522,-0.00258128,-0.00279533,-0.00300782,-0.00322497,-0.00343823,-0.00364828,-0.00386126,-0.0040694,-0.00427304,-0.00447801,-0.00467809,-0.00487262,-0.00506686,-0.00525625,-0.00544051,-0.0056201,-0.00579816,-0.00597117,-0.00613939,-0.00630263,-0.00646025,-0.00661174,-0.00676103,-0.00690537,-0.00704104,-0.00717157,-0.007299,-0.00742127,-0.00753731,-0.00764802,-0.00774777,-0.0078452,-0.00793978,-0.00802502,-0.0080999,-0.00817081,-0.00823771,-0.00829859,-0.00835477,-0.00839843,-0.00843589,-0.00847052,-0.00849889,-0.00851512,-0.00852363,-0.00852712,-0.00852536,-0.00852001,-0.0085046,-0.00847984,-0.00844998,-0.008412,-0.0083657,-0.00831491,-0.00825598,-0.00818847,-0.0081159,-0.0080355,-0.00794719,-0.00785327,-0.00775193,-0.00764262,-0.00752781,-0.00740554,-0.00727598,-0.00714095,-0.00699848,-0.00684928,-0.00669457,-0.00653296,-0.00636477,-0.0061919,-0.00601181,-0.00582634,-0.00563611,-0.00543941,-0.00523765,-0.00503103,-0.00482005,-0.00460549,-0.00438659,-0.0041635,-0.003938,-0.00371052,-0.00348111,-0.00325082,-0.00301897,-0.00278618,-0.00255545,-0.00232669,-0.00210085,-0.00187927,-0.00166209,-0.00145224,-0.00125038,-0.00105811,-0.000877885,-0.000709533,-0.000557294,-0.000421119,-0.00030166,-0.00020324,-0.000124543,-6.4213e-05,-2.56679e-05,-5.50229e-06,1.38717e-06,0
0,-2.45952e-06,-1.84392e-05,-5.51404e-05,-0.000113306,-0.000191711,-0.000292682,-0.000414468,-0.000558728,-0.000725338,-0.000909758,-0.00110691,-0.0013232,-0.0015508,-0.00178666,-0.00203621,-0.00229164,-0.00255067,-0.00281951,-0.00308936,-0.00335924,-0.00363556,-0.00390969,-0.00418131,-0.0044569,-0.00472805,-0.00499491,-0.00526362,-0.00552678,-0.00578447,-0.00604198,-0.00629361,-0.00653898,-0.0067817,-0.00701986,-0.00725054,-0.00747577,-0.00769647,-0.00791231,-0.00812233,-0.00832429,-0.00852034,-0.00870767,-0.00889231,-0.00906962,-0.00923746,-0.00939669,-0.00955189,-0.00970133,-0.00984184,-0.00997527,-0.010096,-0.0102127,-0.0103246,-0.0104259,-0.0105142,-0.0105958,-0.0106722,-0.0107416,-0.0108035,-0.0108514,-0.0108905,-0.0109252,-0.0109517,-0.0109646,-0.0109665,-0.0109609,-0.0109494,-0.010932,-0.0109026,-0.0108623,-0.0108144,-0.0107558,-0.0106876,-0.0106127,-0.0105273,-0.0104323,-0.0103299,-0.0102174,-0.0100953,-0.00996572,-0.00982639,-0.00967786,-0.00952188,-0.00935649,-0.00918207,-0.00900057,-0.00880978,-0.00861066,-0.0084047,-0.00818987,-0.00796726,-0.00773834,-0.00750101,-0.00725669,-0.00700663,-0.00674881,-0.00648517,-0.00621587,-0.00594122,-0.00566236,-0.00537834,-0.00508979,-0.00479897,-0.0045062,-0.00421193,-0.00391739,-0.00362187,-0.00332711,-0.0030359,-0.00274816,-0.00246611,-0.00219034,-0.00192279,-0.00166551,-0.00142041,-0.00118876,-0.000974057,-0.00077638,-0.000598993,-0.000444157,-0.000310477,-0.000202302,-0.00011914,-5.71299e-05,-2.0246e-05,-3.12189e-06,0
0,-9.36995e-06,-3.6957e-05,-8.76794e-05,-0.000166231,-0.000270781,-0.000399393,-0.000553744,-0.000730728,-0.000931341,-0.00115575,-0.00139799,-0.00165332,-0.00192876,-0.00221448,-0.00250912,-0.00281735,-0.00313027,-0.00344682,-0.00377259,-0.00409822,-0.00442412,-0.00475531,-0.00508318,-0.00540851,-0.00573598,-0.00605832,-0.00637623,-0.00669358,-0.00700499,-0.00731057,-0.00761315,-0.0079098,-0.00819921,-0.00848424,-0.00876299,-0.00903456,-0.00929761,-0.00955489,-0.00980693,-0.0100505,-0.0102858,-0.0105133,-0.0107308,-0.0109428,-0.0111477,-0.0113407,-0.0115228,-0.0116999,-0.0118688,-0.0120281,-0.0121788,-0.0123155,-0.012445,-0.0125681,-0.01268,-0.0127766,-0.0128642,-0.0129445,-0.0130161,-0.013079,-0.0131268,-0.013164,-0.0131932,-0.0132135,-0.0132186,-0.0132104,-0.0131929,-0.0131668,-0.0131325,-0.0130864,-0.0130276,-0.0129583,-0.0128771,-0.0127847,-0.0126825,-0.012569,-0.0124442,-0.0123094,-0.0121633,-0.0120064,-0.0118396,-0.0116618,-0.0114733,-0.0112752,-0.0110663,-0.0108473,-0.0106193,-0.0103806,-0.0101325,-0.00987574,-0.00960892,-0.00933336,-0.00905007,-0.00875725,-0.00845654,-0.00814899,-0.0078332,-0.00751102,-0.00718237,-0.00684804,-0.00650885,-0.00616443,-0.0058157,-0.00546502,-0.00511282,-0.00476019,-0.00440794,-0.00405623,-0.0037076,-0.00336382,-0.00302651,-0.00269707,-0.00237707,-0.00206876,-0.00177507,-0.00149641,-0.00123701,-0.000998628,-0.000780883,-0.000589885,-0.000425053,-0.000285271,-0.000176035,-9.44702e-05,-3.68295e-05,-7.56818e-06,0
0,-1.31478e-05,-5.42997e-05,-0.000121513,-0.000218467,-0.00034757,-0.000505229,-0.000689724,-0.000901274,-0.00113564,-0.0013949,-0.00167733,-0.00197691,-0.00229015,-0.00262258,-0.00296408,-0.00331456,-0.00367718,-0.00404363,-0.00441377,-0.00479127,-0.00516812,-0.00554452,-0.0059243,-0.00630055,-0.00667341,-0.00704647,-0.00741428,-0.00777637,-0.00813602,-0.00848979,-0.00883618,-0.0091777,-0.00951277,-0.00984028,-0.01016,-0.0104741,-0.0107789,-0.0110742,-0.0113622,-0.0116427,-0.0119146,-0.0121766,-0.0124303,-0.0126704,-0.0129051,-0.0131304,-0.0133431,-0.0135435,-0.0137357,-0.0139189,-0.0140914,-0.0142542,-0.0144008,-0.0145382,-0.0146675,-0.0147843,-0.0148849,-0.0149741,-0.0150535,-0.0151228,-0.0151822,-0.015226,-0.0152563,-0.0152767,-0.0152862,-0.0152794,-0.0152586,-0.0152259,-0.0151819,-0.0151289,-0.0150624,-0.0149816,-0.0148889,-0.0147828,-0.014663,-0.0145323,-0.0143889,-0.0142323,-0.0140645,-0.0138841,-0.0136906,-0.0134862,-0.0132692,-0.0130401,-0.0128002,-0.0125482,-0.0122845,-0.0120105,-0.0117249,-0.0114283,-0.0111225,-0.0108051,-0.0104783,-0.0101425,-0.00979654,-0.0094419,-0.00908009,-0.00870953,-0.00833208,-0.00794795,-0.00755787,-0.00716296,-0.00676317,-0.00635964,-0.00595485,-0.00554943,-0.00514472,-0.0047415,-0.00434128,-0.00394588,-0.00355819,-0.00317964,-0.00281163,-0.00245667,-0.00211741,-0.00179637,-0.0014946,-0.00121648,-0.000963449,-0.000735758,-0.000538773,-0.000372069,-0.000234109,-0.000129971,-5.78008e-05,-1.22202e-05,0
0,-1.57817e-05,-6.77743e-05,-0.000154118,-0.000271436,-0.000422076,-0.000607352,-0.000822581,-0.00106553,-0.00133531,-0.00162836,-0.00194535,-0.00228466,-0.00264023,-0.00300844,-0.00339438,-0.00378909,-0.00419097,-0.00460393,-0.00501995,-0.00543786,-0.00586186,-0.00628485,-0.00670572,-0.00712882,-0.00754791,-0.00796189,-0.00837481,-0.00878204,-0.00918225,-0.00957852,-0.00996807,-0.0103494,-0.0107236,-0.0110917,-0.0114502,-0.0117998,-0.0121419,-0.0124748,-0.0127969,-0.0131083,-0.0134126,-0.0137067,-0.0139904,-0.0142628,-0.0145218,-0.014772,-0.015013,-0.0152407,-0.0154525,-0.0156548,-0.0158473,-0.0160286,-0.0161977,-0.0163497,-0.01649,-0.0166206,-0.0167384,-0.0168384,-0.0169241,-0.0169986,-0.0170619,-0.0171142,-0.0171494,-0.0171695,-0.0171773,-0.0171726,-0.0171517,-0.0171145,-0.0170629,-0.0169994,-0.0169245,-0.0168347,-0.0167303,-0.0166122,-0.0164786,-0.0163307,-0.01617,-0.0159947,-0.0158053,-0.0156035,-0.0153871,-0.015157,-0.0149148,-0.0146583,-0.0143885,-0.0141072,-0.0138119,-0.0135044,-0.0131855,-0.0128539,-0.0125104,-0.0121567,-0.0117908,-0.0114144,-0.0110286,-0.0106319,-0.0102266,-0.00981359,-0.00939156,-0.00896245,-0.00852669,-0.00808531,-0.00763942,-0.00718946,-0.00673658,-0.00628347,-0.00583112,-0.00538088,-0.00493391,-0.00449223,-0.00405779,-0.00363461,-0.00322254,-0.00282523,-0.00244356,-0.00208208,-0.00174284,-0.00142611,-0.00113814,-0.000879124,-0.000648882,-0.000454031,-0.000293168,-0.000164318,-7.46588e-05,-2.10198e-05,0
0,-2.21774e-05,-8.27107e-05,-0.000184648,-0.000324133,-0.00049712,-0.000705387,-0.00094952,-0.00122362,-0.00152491,-0.00185268,-0.00220281,-0.00257508,-0.00296937,-0.00337765,-0.0037976,-0.00423403,-0.00467718,-0.00512603,-0.00558505,-0.00604513,-0.00650626,-0.00697238,-0.00743555,-0.00789586,-0.0083568,-0.00881245,-0.00926258,-0.00970965,-0.0101501,-0.010583,-0.0110095,-0.011429,-0.0118393,-0.012241,-0.012635,-0.0130196,-0.0133922,-0.0137571,-0.0141124,-0.0144541,-0.0147843,-0.0151059,-0.0154173,-0.0157155,-0.0160027,-0.0162735,-0.0165346,-0.0167864,-0.0170221,-0.017241,-0.0174488,-0.0176459,-0.0178299,-0.0180009,-0.0181536,-0.0182921,-0.0184202,-0.0185342,-0.0186288,-0.0187076,-0.0187735,-0.0188273,-0.0188681,-0.0188915,-0.0188977,-0.0188897,-0.0188687,-0.0188299,-0.0187731,-0.0187012,-0.0186153,-0.0185158,-0.0184016,-0.0182712,-0.0181253,-0.0179635,-0.0177858,-0.0175934,-0.0173857,-0.017163,-0.016926,-0.0166737,-0.0164068,-0.0161258,-0.0158301,-0.0155203,-0.0151976,-0.0148603,-0.0145098,-0.0141471,-0.0137705,-0.013382,-0.0129821,-0.0125696,-0.0121461,-0.0117129,-0.0112687,-0.0108157,-0.0103549,-0.00988481,-0.0094081,-0.00892505,-0.00843703,-0.00794541,-0.00745051,-0.00695398,-0.00645879,-0.00596583,-0.00547674,-0.0049933,-0.00451721,-0.00405214,-0.00360055,-0.00316379,-0.00274483,-0.00234513,-0.00196986,-0.0016204,-0.00129747,-0.00100727,-0.000750484,-0.000526067,-0.00034138,-0.000195225,-8.5625e-05,-2.16113e-05,0
0,-2.5681e-05,-9.80158e-05,-0.00021174,-0.000370157,-0.000567286,-0.000798895,-0.00106698,-0.00137055,-0.00170237,-0.00206141,-0.00244526,-0.0028497,-0.00327529,-0.00372076,-0.0041779,-0.00464599,-0.00512814,-0.00561536,-0.00610756,-0.00660748,-0.00710726,-0.00760706,-0.00810935,-0.00860815,-0.00910324,-0.00959649,-0.0100843,-0.0105653,-0.0110409,-0.01151,-0.0119703,-0.0124221,-0.0128665,-0.0133014,-0.0137248,-0.0141407,-0.0145455,-0.0149369,-0.0153202,-0.015692,-0.0160497,-0.0163938,-0.0167292,-0.0170516,-0.0173616,-0.0176578,-0.0179371,-0.0182056,-0.0184622,-0.0187029,-0.0189251,-0.0191351,-0.0193319,-0.0195154,-0.0196843,-0.019834,-0.0199683,-0.0200899,-0.0201963,-0.0202827,-0.020352,-0.0204068,-0.0204473,-0.020474,-0.0204824,-0.0204723,-0.0204474,-0.0204069,-0.0203475,-0.0202702,-0.0201758,-0.0200651,-0.0199405,-0.0197997,-0.0196413,-0.0194674,-0.0192762,-0.0190671,-0.0188431,-0.0186023,-0.0183449,-0.0180729,-0.0177846,-0.0174803,-0.0171617,-0.0168272,-0.0164775,-0.016114,-0.0157355,-0.0153428,-0.0149374,-0.0145177,-0.0140853,-0.0136411,-0.0131837,-0.0127154,-0.0122373,-0.0117482,-0.0112503,-0.0107444,-0.0102296,-0.0097088,-0.00918252,-0.00865215,-0.00811905,-0.0075839,-0.00704872,-0.00651677,-0.00598877,-0.00546681,-0.00495295,-0.00444912,-0.0039597,-0.00348682,-0.0030322,-0.00259895,-0.00218798,-0.0018064,-0.00145409,-0.00113189,-0.000847874,-0.000600403,-0.000389924,-0.000224527,-0.000103404,-2.45843e-05,0
0,-2.63424e-05,-0.000107997,-0.000237876,-0.000410704,-0.000629341,-0.000886393,-0.00117813,-0.00150598,-0.00186746,-0.00225615,-0.00267047,-0.00310731,-0.00356335,-0.00403833,-0.00453061,-0.00503361,-0.0055452,-0.00606856,-0.00659612,-0.0071262,-0.00766195,-0.00819717,-0.00873021,-0.00926402,-0.0097941,-0.0103182,-0.010839,-0.011354,-0.0118606,-0.0123603,-0.0128531,-0.0133357,-0.013808,-0.0142729,-0.0147268,-0.0151679,-0.0155999,-0.0160209,-0.016427,-0.0168228,-0.0172074,-0.0175762,-0.0179308,-0.0182737,-0.0186045,-0.0189203,-0.0192222,-0.0195066,-0.0197767,-0.0200349,-0.0202766,-0.0204992,-0.0207062,-0.0208999,-0.0210785,-0.0212419,-0.0213858,-0.021512,-0.0216236,-0.0217195,-0.0217952,-0.0218522,-0.0218925,-0.0219175,-0.0219271,-0.0219178,-0.0218901,-0.0218449,-0.0217829,-0.0217021,-0.0216018,-0.0214826,-0.0213469,-0.0211955,-0.0210262,-0.0208394,-0.0206361,-0.0204136,-0.0201736,-0.0199172,-0.0196424,-0.0193508,-0.0190438,-0.0187189,-0.0183777,-0.0180216,-0.0176483,-0.0172597,-0.0168567,-0.0164378,-0.0160043,-0.0155578,-0.0150961,-0.0146217,-0.014135,-0.0136353,-0.0131247,-0.0126045,-0.0120732,-0.0115332,-0.0109855,-0.0104297,-0.00986888,-0.0093036,-0.00873528,-0.00816526,-0.00759479,-0.00702644,-0.0064633,-0.00590588,-0.00535755,-0.00481928,-0.00429423,-0.0037871,-0.00329988,-0.0028343,-0.00239354,-0.00197941,-0.00159816,-0.00125069,-0.000937977,-0.000666766,-0.000438325,-0.000251622,-0.000116428,-3.25194e-05,0
0,-3.17629e-05,-0.000118677,-0.000261719,-0.000452781,-0.000686885,-0.000966504,-0.00128352,-0.00163464,-0.00201992,-0.00243727,-0.00287989,-0.0033457,-0.00383247,-0.00433612,-0.00485609,-0.00539168,-0.00593564,-0.00648604,-0.00704668,-0.00760923,-0.00817276,-0.00874052,-0.00930579,-0.00986761,-0.0104286,-0.0109844,-0.0115335,-0.0120774,-0.0126143,-0.0131423,-0.0136614,-0.0141725,-0.0146731,-0.0151617,-0.0156417,-0.0161105,-0.016564,-0.017008,-0.0174407,-0.017856,-0.0182605,-0.0186529,-0.0190294,-0.0193884,-0.0197361,-0.0200693,-0.0203875,-0.0206916,-0.0209751,-0.0212439,-0.0214997,-0.021739,-0.0219566,-0.0221582,-0.0223442,-0.0225145,-0.0226697,-0.0228039,-0.0229186,-0.0230175,-0.0231002,-0.0231621,-0.0232036,-0.0232272,-0.0232336,-0.0232238,-0.0231956,-0.0231471,-0.0230797,-0.0229952,-0.0228904,-0.0227649,-0.0226207,-0.0224581,-0.0222778,-0.0220799,-0.0218637,-0.0216294,-0.0213761,-0.0211042,-0.0208145,-0.0205061,-0.0201804,-0.0198376,-0.019477,-0.0190996,-0.0187061,-0.0182951,-0.0178684,-0.0174266,-0.0169683,-0.0164957,-0.0160092,-0.0155077,-0.0149929,-0.0144664,-0.0139267,-0.0133768,-0.0128167,-0.0122461,-0.0116674,-0.0110814,-0.0104886,-0.00989201,-0.0092919,-0.00869012,-0.00808812,-0.00748741,-0.00689139,-0.00630252,-0.00572191,-0.00515309,-0.00459683,-0.00405721,-0.00353937,-0.00304444,-0.00257527,-0.00213485,-0.00172413,-0.00135181,-0.00101751,-0.00072176,-0.000474478,-0.000274687,-0.000123147,-3.18143e-05,0
0,-3.51379e-05,-0.000131162,-0.000281894,-0.000488565,-0.000741899,-0.00103731,-0.00137758,-0.00175348,-0.00216135,-0.00260177,-0.00307198,-0.00356458,-0.00407867,-0.00461127,-0.00515788,-0.00571918,-0.00629349,-0.00687378,-0.00745942,-0.00805239,-0.0086456,-0.00923882,-0.00983327,-0.0104245,-0.0110114,-0.0115946,-0.0121722,-0.0127422,-0.0133044,-0.0138597,-0.0144052,-0.0149391,-0.0154649,-0.0159798,-0.0164804,-0.0169719,-0.0174511,-0.0179139,-0.0183665,-0.0188063,-0.019228,-0.0196373,-0.0200349,-0.020414,-0.020776,-0.0211235,-0.0214568,-0.021775,-0.0220762,-0.0223572,-0.0226215,-0.0228728,-0.0231053,-0.0233168,-0.0235093,-0.0236856,-0.023846,-0.0239892,-0.0241109,-0.0242124,-0.0242973,-0.0243644,-0.0244099,-0.0244342,-0.024439,-0.0244256,-0.0243955,-0.0243454,-0.0242743,-0.0241846,-0.0240758,-0.0239454,-0.0237947,-0.0236239,-0.023433,-0.0232247,-0.022997,-0.0227499,-0.0224849,-0.0222003,-0.0218957,-0.0215734,-0.0212317,-0.0208711,-0.0204936,-0.0200975,-0.0196838,-0.0192538,-0.0188062,-0.018342,-0.0178627,-0.0173666,-0.0168558,-0.0163309,-0.0157909,-0.015238,-0.0146734,-0.0140964,-0.0135087,-0.0129115,-0.0123041,-0.0116895,-0.0110686,-0.0104424,-0.00981331,-0.00918215,-0.00855095,-0.00792098,-0.0072946,-0.0066756,-0.00606586,-0.00546746,-0.00488334,-0.00431496,-0.00376667,-0.00324371,-0.00274787,-0.00228141,-0.00184777,-0.00144862,-0.00109227,-0.000779314,-0.000510883,-0.000296119,-0.000137198,-3.37784e-05,0
0,-3.41224e-05,-0.000137891,-0.000300848,-0.000517351,-0.000788422,-0.00110399,-0.00146034,-0.00185974,-0.00229185,-0.0027541,-0.00324654,-0.0037655,-0.00430495,-0.00486335,-0.00543729,-0.00602365,-0.00662175,-0.00723001,-0.00784326,-0.00845923,-0.00907974,-0.00970028,-0.0103183,-0.0109352,-0.0115488,-0.0121558,-0.0127572,-0.0133531,-0.0139394,-0.0145163,-0.0150859,-0.0156443,-0.0161897,-0.0167265,-0.0172514,-0.0177607,-0.0182596,-0.0187459,-0.0192148,-0.0196714,-0.0201152,-0.0205397,-0.0209515,-0.0213491,-0.0217294,-0.0220894,-0.0224346,-0.0227655,-0.0230785,-0.0233752,-0.0236505,-0.0239087,-0.0241507,-0.0243751,-0.0245765,-0.024758,-0.0249228,-0.0250695,-0.0251984,-0.0253059,-0.0253926,-0.0254606,-0.0255099,-0.0255371,-0.025542,-0.0255266,-0.0254923,-0.0254394,-0.025366,-0.0252719,-0.0251576,-0.0250228,-0.024867,-0.0246896,-0.0244906,-0.0242719,-0.0240342,-0.0237758,-0.0234984,-0.0232024,-0.0228851,-0.0225486,-0.0221935,-0.0218177,-0.0214234,-0.0210116,-0.02058,-0.020131,-0.0196656,-0.0191815,-0.0186811,-0.0181654,-0.0176326,-0.0170851,-0.0165235,-0.0159469,-0.0153581,-0.0147578,-0.0141449,-0.0135222,-0.0128899,-0.0122489,-0.0116018,-0.0109495,-0.0102931,-0.00963526,-0.00897693,-0.00832032,-0.00766701,-0.00701971,-0.00638255,-0.00575743,-0.00514645,-0.00455291,-0.00397828,-0.00342722,-0.00290594,-0.0024157,-0.00195921,-0.0015404,-0.00116024,-0.000829419,-0.000547418,-0.000315755,-0.000146584,-4.07509e-05,0
0,-3.83715e-05,-0.000144736,-0.000318441,-0.000548816,-0.000830799,-0.00116482,-0.00154099,-0.00195617,-0.00241126,-0.00289648,-0.00340964,-0.00394964,-0.00451377,-0.00509594,-0.00569389,-0.0063053,-0.00692665,-0.0075567,-0.00819529,-0.00883675,-0.00947876,-0.0101236,-0.0107666,-0.0114054,-0.0120416,-0.012673,-0.0132965,-0.013913,-0.0145224,-0.0151217,-0.01571,-0.0162897,-0.0168576,-0.0174113,-0.0179552,-0.0184867,-0.019001,-0.0195037,-0.0199938,-0.0204647,-0.0209224,-0.0213665,-0.0217915,-0.0222006,-0.0225965,-0.0229728,-0.0233288,-0.0236692,-0.0239924,-0.0242986,-0.0245872,-0.0248549,-0.0251022,-0.0253337,-0.0255458,-0.0257349,-0.0259039,-0.0260533,-0.0261839,-0.0262964,-0.026388,-0.0264571,-0.0265062,-0.0265356,-0.0265422,-0.0265264,-0.0264897,-0.0264318,-0.0263547,-0.0262573,-0.0261381,-0.0259977,-0.0258371,-0.0256541,-0.0254485,-0.0252219,-0.0249741,-0.0247058,-0.0244173,-0.0241089,-0.0237806,-0.0234317,-0.023063,-0.0226747,-0.0222658,-0.0218381,-0.0213916,-0.0209257,-0.0204423,-0.0199414,-0.0194224,-0.0188871,-0.0183359,-0.0177677,-0.0171848,-0.0165882,-0.0159772,-0.0153545,-0.0147201,-0.0140738,-0.0134182,-0.0127541,-0.0120825,-0.0114062,-0.0107254,-0.0100425,-0.00935966,-0.00867823,-0.00800083,-0.00732878,-0.00666531,-0.00601518,-0.00538,-0.00476194,-0.00416518,-0.00359027,-0.00304348,-0.00253062,-0.00205375,-0.00161511,-0.00121944,-0.000868242,-0.00057188,-0.000332114,-0.000149665,-3.86251e-05,0
0,-4.1442e-05,-0.000154572,-0.00033295,-0.000575823,-0.000872309,-0.00121763,-0.0016124,-0.00204682,-0.00251718,-0.00302457,-0.00355962,-0.00411929,-0.00470317,-0.0053084,-0.00592834,-0.00656213,-0.00720677,-0.00785849,-0.00851723,-0.00918186,-0.00984721,-0.0105122,-0.0111769,-0.0118386,-0.0124954,-0.0131466,-0.0137921,-0.0144296,-0.015057,-0.015677,-0.0162866,-0.0168825,-0.0174693,-0.018044,-0.0186029,-0.0191508,-0.0196858,-0.0202024,-0.0207065,-0.021197,-0.0216677,-0.0221237,-0.0225663,-0.0229877,-0.0233933,-0.0237833,-0.0241544,-0.0245048,-0.0248361,-0.0251509,-0.0254474,-0.0257271,-0.0259831,-0.0262194,-0.026437,-0.0266354,-0.0268116,-0.0269646,-0.0270974,-0.0272109,-0.0273063,-0.0273792,-0.0274294,-0.0274584,-0.0274665,-0.0274519,-0.0274144,-0.0273542,-0.0272725,-0.0271713,-0.027048,-0.0269026,-0.0267365,-0.0265485,-0.0263373,-0.0261042,-0.0258491,-0.0255712,-0.0252736,-0.0249544,-0.024614,-0.0242545,-0.0238738,-0.0234722,-0.0230514,-0.02261,-0.0221484,-0.0216687,-0.0211692,-0.0206514,-0.0201165,-0.0195632,-0.0189936,-0.0184079,-0.0178058,-0.0171892,-0.0165594,-0.0159158,-0.0152604,-0.0145936,-0.0139158,-0.0132298,-0.0125362,-0.011837,-0.011134,-0.0104278,-0.00972151,-0.00901711,-0.00831638,-0.00762194,-0.00693509,-0.00626003,-0.00560145,-0.00496117,-0.0043417,-0.00374701,-0.00317831,-0.00264187,-0.00214458,-0.00168787,-0.00127568,-0.000911652,-0.000598082,-0.000347407,-0.00016087,-3.97582e-05,0
0,-3.98044e-05,-0.000159126,-0.000346308,-0.000595622,-0.000905977,-0.00126655,-0.00167326,-0.00212653,-0.00261601,-0.00313848,-0.00369496,-0.00427566,-0.00487838,-0.00550225,-0.00614403,-0.00679853,-0.00746417,-0.00813759,-0.00881667,-0.00949989,-0.0101862,-0.0108727,-0.0115565,-0.0122372,-0.0129149,-0.0135855,-0.0142484,-0.0149057,-0.0155529,-0.0161884,-0.0168162,-0.017432,-0.018033,-0.0186239,-0.0192026,-0.0197637,-0.0203127,-0.0208482,-0.0213649,-0.0218673,-0.0223555,-0.0228234,-0.023276,-0.023713,-0.0241298,-0.0245281,-0.0249107,-0.0252748,-0.0256154,-0.025937,-0.0262407,-0.0265268,-0.0267929,-0.0270373,-0.0272591,-0.0274617,-0.0276457,-0.0278051,-0.0279411,-0.0280562,-0.0281518,-0.0282272,-0.0282803,-0.0283099,-0.0283173,-0.0283037,-0.0282666,-0.0282053,-0.0281212,-0.0280153,-0.027888,-0.0277381,-0.0275666,-0.0273732,-0.0271569,-0.0269182,-0.0266565,-0.0263715,-0.0260646,-0.0257367,-0.0253859,-0.0250147,-0.0246237,-0.0242103,-0.023777,-0.023324,-0.0228492,-0.0223552,-0.0218423,-0.0213093,-0.0207581,-0.0201901,-0.0196033,-0.0190003,-0.0183816,-0.0177466,-0.0170982,-0.0164365,-0.0157613,-0.0150749,-0.0143776,-0.0136708,-0.0129571,-0.0122369,-0.0115126,-0.0107857,-0.0100571,-0.00933065,-0.00860849,-0.00789222,-0.00718496,-0.00648813,-0.00580605,-0.00514428,-0.00450442,-0.00388924,-0.00330277,-0.00274697,-0.00222805,-0.00175364,-0.00132637,-0.000948643,-0.000626575,-0.000361378,-0.000167707,-4.64766e-05,0
0,-4.3279e-05,-0.00016321,-0.000358951,-0.000618395,-0.000936574,-0.0013117,-0.00173371,-0.00219902,-0.00270695,-0.00324778,-0.00381893,-0.0044198,-0.0050423,-0.00568419,-0.00634337,-0.00701797,-0.00770307,-0.00839593,-0.00909484,-0.00979726,-0.0105008,-0.0112061,-0.0119096,-0.0126085,-0.013303,-0.0139926,-0.0146739,-0.0153463,-0.0160111,-0.0166652,-0.0173069,-0.0179386,-0.0185582,-0.0191617,-0.0197542,-0.0203333,-0.0208944,-0.0214417,-0.0219752,-0.0224891,-0.0229872,-0.0234704,-0.0239337,-0.0243791,-0.0248093,-0.0252176,-0.0256071,-0.0259806,-0.0263334,-0.0266634,-0.0269726,-0.0272642,-0.0275354,-0.0277881,-0.0280168,-0.028223,-0.02841,-0.0285754,-0.0287169,-0.0288346,-0.0289312,-0.0290058,-0.0290602,-0.0290914,-0.0290989,-0.0290843,-0.0290472,-0.0289856,-0.0289002,-0.0287916,-0.0286595,-0.0285053,-0.0283289,-0.0281296,-0.0279075,-0.0276636,-0.0273958,-0.0271044,-0.0267905,-0.0264538,-0.0260946,-0.0257132,-0.0253108,-0.0248872,-0.0244422,-0.0239769,-0.0234909,-0.0229839,-0.0224577,-0.0219119,-0.0213463,-0.0207631,-0.0201617,-0.0195426,-0.0189071,-0.0182563,-0.0175904,-0.0169113,-0.0162188,-0.0155138,-0.0147981,-0.0140725,-0.0133393,-0.0126002,-0.0118557,-0.0111088,-0.010361,-0.00961339,-0.00887067,-0.0081347,-0.00740714,-0.00669168,-0.0059895,-0.00530548,-0.00464606,-0.00401237,-0.00340778,-0.00283675,-0.00230084,-0.00180774,-0.00136534,-0.000975637,-0.000643579,-0.000373069,-0.000168174,-4.34301e-05,0
0,-4.55433e-05,-0.000171114,-0.000369286,-0.000638767,-0.000967759,-0.00135154,-0.0017883,-0.00226874,-0.00278865,-0.00334713,-0.00393571,-0.00455091,-0.00519225,-0.00585285,-0.0065292,-0.00722008,-0.00792377,-0.00863491,-0.00935195,-0.0100726,-0.0107941,-0.0115155,-0.0122361,-0.012953,-0.0136648,-0.0143693,-0.0150677,-0.0157577,-0.0164362,-0.017106,-0.0177653,-0.0184096,-0.0190432,-0.0196641,-0.0202685,-0.0208597,-0.0214375,-0.021996,-0.0225399,-0.0230692,-0.0235781,-0.0240701,-0.0245471,-0.0250028,-0.0254405,-0.0258608,-0.0262597,-0.0266395,-0.0270004,-0.0273416,-0.0276591,-0.0279559,-0.0282318,-0.0284888,-0.0287247,-0.0289375,-0.0291281,-0.0292959,-0.0294427,-0.0295653,-0.0296646,-0.0297401,-0.0297937,-0.0298257,-0.0298341,-0.0298195,-0.0297815,-0.0297196,-0.0296337,-0.0295236,-0.0293888,-0.0292303,-0.0290497,-0.0288453,-0.0286174,-0.0283678,-0.0280948,-0.0277973,-0.0274771,-0.0271336,-0.0267659,-0.0263767,-0.0259643,-0.0255298,-0.0250749,-0.0245984,-0.0241005,-0.0235827,-0.023044,-0.022485,-0.0219071,-0.0213096,-0.0206938,-0.0200607,-0.0194096,-0.0187432,-0.0180619,-0.0173661,-0.0166568,-0.0159348,-0.0152012,-0.0144581,-0.0137065,-0.0129488,-0.0121865,-0.0114199,-0.0106531,-0.0098874,-0.00912396,-0.00836835,-0.0076219,-0.00688719,-0.0061676,-0.00546463,-0.00478398,-0.0041322,-0.00351073,-0.00292349,-0.00237439,-0.00186636,-0.00140679,-0.00100463,-0.000662937,-0.00038505,-0.00017756,-4.43666e-05,0
0,-4.51305e-05,-0.000175233,-0.000380545,-0.000654018,-0.000994154,-0.0013893,-0.00183517,-0.00233028,-0.00286518,-0.00343572,-0.00404126,-0.00467332,-0.00532865,-0.00600689,-0.00670121,-0.0074086,-0.00812767,-0.00885615,-0.00959044,-0.0103283,-0.0110669,-0.0118053,-0.012541,-0.0132734,-0.014002,-0.0147235,-0.0154353,-0.0161408,-0.0168362,-0.0175185,-0.0181918,-0.0188529,-0.0194981,-0.0201313,-0.020752,-0.0213542,-0.0219427,-0.0225165,-0.0230709,-0.0236095,-0.0241322,-0.0246344,-0.0251193,-0.0255872,-0.0260345,-0.0264615,-0.026871,-0.0272594,-0.0276261,-0.0279742,-0.0283016,-0.0286064,-0.028887,-0.029148,-0.0293872,-0.0296061,-0.0298026,-0.0299737,-0.0301225,-0.0302494,-0.030353,-0.0304309,-0.0304854,-0.0305163,-0.0305248,-0.0305105,-0.0304718,-0.0304087,-0.0303224,-0.0302113,-0.0300749,-0.0299138,-0.029729,-0.0295205,-0.0292875,-0.0290317,-0.0287529,-0.0284498,-0.0281235,-0.0277735,-0.0273992,-0.0270022,-0.0265824,-0.0261381,-0.0256726,-0.0251863,-0.0246769,-0.0241476,-0.023598,-0.0230268,-0.0224364,-0.0218271,-0.0211976,-0.0205506,-0.0198857,-0.0192042,-0.0185075,-0.0177965,-0.0170709,-0.0163329,-0.0155826,-0.0148225,-0.0140542,-0.0132786,-0.0124984,-0.0117148,-0.0109286,-0.0101446,-0.0093642,-0.00858821,-0.00782333,-0.00707082,-0.00633318,-0.00561436,-0.00491612,-0.0042443,-0.0036061,-0.00300373,-0.00244039,-0.00192137,-0.0014489,-0.00103202,-0.000679718,-0.000395805,-0.000183174,-5.03713e-05,0
0,-4.50349e-05,-0.000176766,-0.00038825,-0.000670038,-0.00101548,-0.00142244,-0.00188021,-0.00238493,-0.00293447,-0.00351986,-0.00413769,-0.00478605,-0.00545789,-0.00614998,-0.00686086,-0.00758541,-0.00832058,-0.00906372,-0.00981409,-0.0105684,-0.0113233,-0.0120775,-0.0128297,-0.0135765,-0.0143191,-0.0150562,-0.0157846,-0.0165024,-0.017212,-0.0179104,-0.0185953,-0.0192689,-0.01993,-0.0205741,-0.0212057,-0.021823,-0.022422,-0.0230052,-0.0235734,-0.0241221,-0.0246529,-0.0251675,-0.0256617,-0.0261367,-0.0265946,-0.0270304,-0.0274458,-0.0278432,-0.0282178,-0.0285709,-0.0289038,-0.0292172,-0.029505,-0.0297703,-0.0300126,-0.0302337,-0.0304351,-0.030611,-0.0307627,-0.0308911,-0.030998,-0.0310789,-0.0311354,-0.0311667,-0.031174,-0.0311592,-0.0311199,-0.0310556,-0.0309678,-0.0308556,-0.0307175,-0.0305544,-0.0303667,-0.0301539,-0.029917,-0.0296559,-0.0293708,-0.0290619,-0.0287298,-0.0283732,-0.0279921,-0.0275881,-0.0271606,-0.026709,-0.0262343,-0.0257377,-0.0252189,-0.0246783,-0.0241172,-0.0235351,-0.0229324,-0.0223106,-0.0216691,-0.0210087,-0.0203304,-0.0196355,-0.0189242,-0.0181986,-0.0174579,-0.0167039,-0.0159381,-0.0151613,-0.0143765,-0.0135849,-0.0127868,-0.011986,-0.0111835,-0.0103806,-0.00958262,-0.00879093,-0.00800623,-0.00723627,-0.00648192,-0.00574614,-0.00503356,-0.00434534,-0.00368855,-0.0030709,-0.00249453,-0.00196336,-0.00148252,-0.00105557,-0.000690133,-0.000398625,-0.000182682,-4.68805e-05,0