-0,-0.000612881,-0.00173257,-0.00242905,-0.00260426,-0.00121783,0.00220124,0.00594996,0.0103205,0.0170962,0.0232154,0.0302997,0.0394103,0.0471866,0.0560112,0.0665838,0.0752419,0.085137,0.0965525,0.105526,0.11598,0.127691,0.136616,0.147226,0.158898,0.16761,0.17806,0.189445,0.197878,0.207895,0.218821,0.227017,0.236365,0.245333,0.255278,0.263607,0.272599,0.280692,0.288244,0.296686,0.304552,0.311253,0.318295,0.325311,0.332822,0.338718,0.345671,0.351026,0.35569,0.362614,0.367194,0.371512,0.374835,0.380366,0.383684,0.388421,0.391879,0.393009,0.396929,0.399738,0.401651,0.401394,0.403177,0.403804,0.405624,0.407045,0.405811,0.405676,0.405669,0.40357,0.402417,0.401399,0.398517,0.396196,0.394081,0.39037,0.386943,0.383673,0.379066,0.37457,0.370176,0.364613,0.359116,0.353606,0.347109,0.3406,0.334086,0.326543,0.319168,0.311599,0.303142,0.294887,0.286386,0.277034,0.267899,0.257936,0.248133,0.238132,0.227969,0.21731,0.207081,0.1961,0.185484,0.174401,0.163154,0.151366,0.140246,0.128504,0.117432,0.106164,0.0945189,0.0837094,0.0728822,0.0621908,0.0523824,0.0428517,0.0338773,0.0258899,0.0184416,0.0122114,0.00679306,0.00246897,-0.000113999,-0.00191041,-0.00189705,-0.00163545,-0.000717798,-0
-0.000612881,-0.00025285,0.000114841,0.000912073,0.00244257,0.00462374,0.0076191,0.0114374,0.0159891,0.0213895,0.0276751,0.0343387,0.0415149,0.0495387,0.057537,0.0660046,0.0750313,0.0838568,0.0930053,0.102601,0.111753,0.121203,0.130947,0.140134,0.149562,0.159208,0.168205,0.177406,0.186759,0.195445,0.204259,0.213188,0.221482,0.229796,0.238198,0.246054,0.253782,0.261373,0.268893,0.276124,0.283096,0.289918,0.296362,0.302656,0.308941,0.314631,0.320171,0.32542,0.330766,0.335491,0.340223,0.344517,0.348258,0.352374,0.35588,0.359013,0.361604,0.364448,0.366741,0.368973,0.370855,0.371952,0.373274,0.374289,0.374909,0.374774,0.374664,0.374191,0.373626,0.37284,0.371355,0.369714,0.367875,0.365462,0.362857,0.360078,0.356739,0.353186,0.34944,0.345194,0.340713,0.336015,0.330866,0.325468,0.319857,0.313812,0.30754,0.30104,0.294127,0.287017,0.279667,0.271937,0.264027,0.255898,0.247387,0.238766,0.229907,0.220727,0.211446,0.201865,0.192197,0.182352,0.172363,0.162207,0.152094,0.14183,0.131627,0.121403,0.111189,0.101003,0.0910749,0.0812372,0.0717197,0.0624832,0.0535509,0.0451564,0.0372203,0.0298871,0.0232805,0.0173624,0.0123726,0.00819545,0.00491466,0.00268647,0.00113079,0.000200785,-0.000162258,-0.000717798
-0.00124697,0.000280109,0.00216691,0.00418188,0.00640278,0.00905655,0.012289,0.0160717,0.0204937,0.025482,0.0310523,0.0371234,0.0437399,0.0506658,0.0580216,0.0657032,0.0735945,0.0817082,0.0900692,0.0984413,0.106976,0.115602,0.124167,0.132783,0.141429,0.149918,0.158409,0.166867,0.175124,0.183328,0.191461,0.199362,0.207164,0.214872,0.222339,0.229658,0.236862,0.243832,0.250604,0.257211,0.263641,0.26986,0.275836,0.281664,0.287204,0.292564,0.297725,0.302605,0.307252,0.311654,0.315907,0.319789,0.323532,0.326944,0.330095,0.333064,0.335738,0.338115,0.340171,0.34209,0.343635,0.344981,0.346003,0.34671,0.347194,0.347415,0.347327,0.346868,0.346206,0.345218,0.343992,0.342462,0.340612,0.338485,0.336103,0.333379,0.330396,0.327144,0.323573,0.31973,0.315625,0.311207,0.306523,0.301579,0.296336,0.290838,0.285084,0.279049,0.272768,0.266245,0.25945,0.252431,0.24518,0.237681,0.229983,0.222073,0.213942,0.205643,0.197164,0.188498,0.179706,0.170756,0.161716,0.152564,0.143356,0.134078,0.124829,0.115558,0.106382,0.0972695,0.0883114,0.0795063,0.0709716,0.0626852,0.0547659,0.047225,0.0401396,0.0335691,0.027559,0.0221629,0.0174083,0.0133141,0.00988024,0.00700946,0.00460463,0.00251628,0.000131963,-0.00156239
-0.00214109,0.00101503,0.00419909,0.00710559,0.00998153,0.013029,0.0163724,0.0200981,0.0242565,0.0288715,0.0339138,0.0393952,0.0452576,0.0514906,0.0580324,0.06488,0.0719344,0.0792212,0.0866645,0.0942347,0.101901,0.109657,0.117423,0.125223,0.133017,0.140763,0.148473,0.156131,0.163687,0.171162,0.178541,0.185782,0.192906,0.199908,0.206749,0.213443,0.219992,0.226365,0.232565,0.238602,0.244455,0.250112,0.255586,0.260867,0.265953,0.270818,0.275499,0.279947,0.284189,0.288218,0.292018,0.295587,0.298926,0.302055,0.304919,0.307568,0.30996,0.31211,0.314027,0.315697,0.317104,0.318246,0.319159,0.319798,0.320195,0.320323,0.320189,0.319799,0.319156,0.318246,0.317057,0.315616,0.313904,0.311938,0.309707,0.307211,0.304454,0.301445,0.298167,0.294637,0.290852,0.286806,0.282511,0.277969,0.273176,0.268143,0.262873,0.257363,0.251625,0.245662,0.239471,0.233067,0.226454,0.219635,0.212624,0.205429,0.198052,0.190515,0.182822,0.174984,0.167025,0.158955,0.150789,0.142556,0.134268,0.12596,0.117649,0.109373,0.101154,0.0930407,0.0850529,0.0772475,0.0696506,0.0623159,0.0552782,0.0485914,0.042287,0.0364091,0.0309873,0.026042,0.0215803,0.0175821,0.014007,0.0107484,0.00767525,0.00456516,0.00108245,-0.00168011
-0.00235114,0.00243213,0.00642882,0.00999835,0.0133226,0.016609,0.0200039,0.0236115,0.0275008,0.0317068,0.0362492,0.041129,0.0463372,0.0518474,0.0576439,0.0636887,0.0699612,0.0764212,0.0830505,0.0898013,0.0966642,0.103599,0.110586,0.117598,0.12462,0.131619,0.138591,0.145515,0.152371,0.159151,0.165842,0.172428,0.178905,0.185265,0.191493,0.197586,0.203538,0.209339,0.214983,0.220471,0.225792,0.230941,0.235917,0.240716,0.245328,0.249754,0.25399,0.258034,0.261874,0.26552,0.268957,0.272189,0.275212,0.278021,0.280614,0.282986,0.285144,0.287072,0.288783,0.290264,0.291515,0.292536,0.293325,0.293881,0.2942,0.294288,0.294134,0.293747,0.29312,0.292255,0.29115,0.289807,0.288224,0.2864,0.284341,0.282043,0.279509,0.27674,0.273737,0.2705,0.267032,0.263333,0.259407,0.255257,0.250885,0.246294,0.241489,0.236471,0.231247,0.225819,0.220193,0.214374,0.208369,0.202185,0.19583,0.189313,0.182641,0.175828,0.168883,0.161818,0.15465,0.147394,0.140065,0.132686,0.125276,0.117856,0.110455,0.103096,0.0958098,0.0886246,0.0815742,0.0746893,0.0680069,0.061557,0.055376,0.049492,0.043934,0.0387223,0.0338696,0.0293764,0.0252245,0.0213756,0.0177571,0.0142612,0.0107294,0.00696023,0.00269363,-0.00226707
-0.000891657,0.00469569,0.00911707,0.0130714,0.0166414,0.0200221,0.0233652,0.0267844,0.0303612,0.0341496,0.0381834,0.0424801,0.0470421,0.0518638,0.0569319,0.0622286,0.0677307,0.0734174,0.0792605,0.0852379,0.0913222,0.097492,0.103721,0.10999,0.116277,0.122562,0.128829,0.135063,0.141246,0.147367,0.153412,0.15937,0.165231,0.170988,0.176631,0.182152,0.187544,0.192802,0.197919,0.20289,0.207711,0.212376,0.216883,0.221225,0.2254,0.229403,0.233233,0.236885,0.240355,0.243642,0.246743,0.249653,0.252373,0.254897,0.257225,0.259355,0.261282,0.263007,0.264528,0.265843,0.266948,0.267844,0.268529,0.269002,0.269263,0.269311,0.269142,0.268758,0.26816,0.267344,0.266313,0.265064,0.2636,0.26192,0.260025,0.257916,0.255593,0.253058,0.250312,0.247356,0.244191,0.24082,0.237244,0.233467,0.229491,0.225319,0.220954,0.2164,0.211661,0.206741,0.201646,0.19638,0.19095,0.185364,0.179628,0.173751,0.167742,0.161613,0.155373,0.149036,0.142616,0.136128,0.129589,0.123017,0.116432,0.109856,0.103311,0.0968206,0.0904111,0.084109,0.0779407,0.071934,0.0661152,0.0605104,0.0551426,0.050032,0.0451927,0.0406321,0.0363471,0.0323209,0.0285198,0.0248866,0.0213376,0.0177522,0.0139804,0.00982328,0.00475699,-9.41886e-05
0.0024088,0.00759485,0.0123825,0.0164712,0.0200934,0.0234237,0.0266084,0.0297642,0.0329806,0.0363228,0.0398365,0.0435504,0.0474797,0.0516293,0.0559955,0.0605689,0.0653353,0.0702773,0.0753754,0.0806083,0.0859552,0.0913941,0.0969042,0.102465,0.108057,0.113661,0.119261,0.124841,0.130386,0.135882,0.141317,0.146679,0.151959,0.157148,0.162236,0.167217,0.172083,0.176828,0.181447,0.185934,0.190284,0.194493,0.198558,0.202473,0.206236,0.209844,0.213292,0.216578,0.2197,0.222654,0.225438,0.22805,0.230487,0.232748,0.234829,0.23673,0.238448,0.239982,0.241331,0.242492,0.243464,0.244247,0.244838,0.245238,0.245445,0.245459,0.245279,0.244904,0.244334,0.24357,0.24261,0.241455,0.240106,0.238563,0.236826,0.234896,0.232775,0.230462,0.22796,0.225269,0.222392,0.21933,0.216085,0.21266,0.209057,0.205279,0.201329,0.197211,0.19293,0.188488,0.183891,0.179145,0.174256,0.16923,0.164076,0.158801,0.153415,0.147929,0.142352,0.136699,0.130983,0.125219,0.119422,0.113611,0.107805,0.102023,0.096286,0.0906166,0.0850372,0.0795705,0.0742394,0.0690659,0.0640708,0.0592724,0.0546859,0.0503215,0.0461833,0.0422666,0.0385561,0.0350224,0.0316191,0.0282786,0.0249073,0.0213841,0.0175461,0.0132065,0.00807788,0.00157756
0.00578742,0.011432,0.0162196,0.0202699,0.0237824,0.0269295,0.0298524,0.0326689,0.0354724,0.0383353,0.0413113,0.0444381,0.0477401,0.0512308,0.0549148,0.0587896,0.0628474,0.0670762,0.0714608,0.0759842,0.0806278,0.0853725,0.0901991,0.0950883,0.100022,0.104981,0.10995,0.114913,0.119854,0.124761,0.129621,0.134422,0.139154,0.143808,0.148376,0.152849,0.15722,0.161484,0.165635,0.169668,0.173577,0.17736,0.181011,0.184527,0.187905,0.191142,0.194235,0.19718,0.199976,0.202621,0.205111,0.207445,0.209621,0.211636,0.21349,0.21518,0.216705,0.218063,0.219253,0.220275,0.221125,0.221805,0.222312,0.222646,0.222807,0.222794,0.222605,0.222242,0.221704,0.22099,0.220101,0.219037,0.217799,0.216386,0.2148,0.213042,0.211111,0.209009,0.206738,0.204299,0.201692,0.198921,0.195987,0.192893,0.18964,0.186232,0.182672,0.178963,0.17511,0.171116,0.166987,0.162728,0.158344,0.153844,0.149234,0.144523,0.13972,0.134836,0.129882,0.124869,0.119813,0.114728,0.109629,0.104533,0.0994586,0.0944245,0.0894501,0.0845554,0.0797605,0.0750853,0.0705488,0.0661684,0.0619598,0.0579349,0.054102,0.0504633,0.047014,0.0437404,0.0406175,0.0376065,0.0346524,0.0316806,0.0285947,0.02527,0.0215661,0.0172971,0.0123466,0.00611365
0.0104259,0.0162789,0.0207001,0.0245267,0.0277822,0.0306231,0.0331885,0.0355927,0.0379309,0.0402794,0.0426973,0.0452288,0.0479053,0.050747,0.0537649,0.0569623,0.0603367,0.0638805,0.0675825,0.0714286,0.0754028,0.079488,0.0836664,0.0879198,0.0922304,0.0965808,0.100955,0.105336,0.10971,0.114063,0.118382,0.122656,0.126874,0.131028,0.135107,0.139105,0.143014,0.146828,0.150542,0.154151,0.157649,0.161033,0.164299,0.167444,0.170464,0.173356,0.176118,0.178748,0.181242,0.183599,0.185817,0.187894,0.189828,0.191618,0.193262,0.194758,0.196105,0.197302,0.198348,0.199242,0.199982,0.200569,0.201,0.201277,0.201398,0.201362,0.201169,0.20082,0.200314,0.199651,0.198832,0.197856,0.196723,0.195436,0.193993,0.192396,0.190646,0.188743,0.18669,0.184486,0.182135,0.179637,0.176994,0.17421,0.171285,0.168223,0.165027,0.161701,0.158247,0.154672,0.150979,0.147174,0.143263,0.139252,0.135151,0.130966,0.126707,0.122386,0.118012,0.113599,0.10916,0.10471,0.100264,0.0958394,0.0914525,0.0871216,0.082865,0.078701,0.0746477,0.0707223,0.0669405,0.0633163,0.0598604,0.0565799,0.0534769,0.0505473,0.0477794,0.045152,0.0426328,0.0401766,0.0377226,0.0351925,0.0324882,0.0294938,0.0260658,0.0220814,0.0170669,0.0122556
0.0170535,0.0217008,0.0258598,0.0292789,0.0321362,0.0345645,0.036685,0.0386097,0.0404327,0.0422321,0.0440707,0.0459972,0.0480477,0.0502478,0.0526133,0.0551524,0.0578665,0.0607517,0.0637999,0.0669997,0.070337,0.0737963,0.0773608,0.0810134,0.0847366,0.0885134,0.0923272,0.0961623,0.100004,0.103838,0.107651,0.111432,0.115171,0.118856,0.122481,0.126036,0.129514,0.13291,0.136217,0.139432,0.142548,0.145562,0.148471,0.151271,0.153959,0.156532,0.158989,0.161326,0.163542,0.165634,0.167601,0.169441,0.171153,0.172735,0.174186,0.175505,0.176689,0.17774,0.178654,0.179432,0.180073,0.180577,0.180941,0.181167,0.181253,0.1812,0.181007,0.180674,0.180201,0.179588,0.178835,0.177943,0.176913,0.175743,0.174436,0.172992,0.171412,0.169696,0.167847,0.165865,0.163752,0.161509,0.159138,0.156643,0.154024,0.151284,0.148428,0.145457,0.142376,0.13919,0.135902,0.132519,0.129047,0.125492,0.121863,0.118168,0.114416,0.110618,0.106785,0.102931,0.0990678,0.0952111,0.091376,0.0875787,0.0838362,0.0801655,0.0765841,0.0731089,0.0697564,0.0665415,0.0634776,0.0605751,0.0578414,0.0552791,0.0528856,0.0506516,0.0485599,0.0465839,0.0446859,0.0428159,0.0409098,0.0388878,0.0366535,0.0340903,0.0310742,0.0274292,0.0230312,0.0170922
0.0234718,0.0278617,0.0315855,0.0345058,0.0368691,0.0387911,0.0403913,0.0417762,0.0430384,0.0442566,0.0454954,0.0468065,0.0482296,0.049794,0.0515192,0.0534171,0.0554923,0.0577438,0.0601658,0.0627489,0.0654805,0.0683464,0.0713306,0.0744163,0.0775866,0.0808245,0.0841132,0.087437,0.0907806,0.0941299,0.0974716,0.100794,0.104085,0.107336,0.110538,0.113682,0.116761,0.119769,0.1227,0.125549,0.128312,0.130985,0.133564,0.136045,0.138427,0.140707,0.142882,0.14495,0.14691,0.148758,0.150495,0.152119,0.153627,0.155019,0.156294,0.157451,0.158488,0.159405,0.160201,0.160875,0.161426,0.161855,0.16216,0.162342,0.162399,0.162333,0.162142,0.161826,0.161386,0.160822,0.160134,0.159323,0.158388,0.15733,0.156151,0.15485,0.153429,0.151889,0.15023,0.148454,0.146563,0.144558,0.14244,0.140213,0.137878,0.135438,0.132895,0.130255,0.127519,0.124693,0.121781,0.118789,0.115723,0.112591,0.109399,0.106157,0.102875,0.0995629,0.0962327,0.0928973,0.0895702,0.0862662,0.0830007,0.0797898,0.0766503,0.0735987,0.0706519,0.0678258,0.0651355,0.0625944,0.0602136,0.0580012,0.0559615,0.0540938,0.0523917,0.0508419,0.049423,0.0481041,0.046844,0.0455895,0.0442746,0.0428192,0.0411289,0.0390971,0.0365883,0.0335036,0.0297523,0.0247444
0.0304355,0.0349818,0.0378598,0.0402109,0.0419844,0.0433254,0.0443407,0.0451335,0.0457948,0.0464028,0.0470231,0.0477092,0.0485033,0.0494371,0.0505333,0.0518059,0.0532623,0.0549034,0.0567254,0.05872,0.0608761,0.0631799,0.0656161,0.0681682,0.0708192,0.0735519,0.0763497,0.0791962,0.0820759,0.0849742,0.0878777,0.0907739,0.0936514,0.0965,0.0993104,0.102074,0.104785,0.107435,0.110019,0.112532,0.11497,0.117328,0.119604,0.121793,0.123894,0.125904,0.127821,0.129643,0.131368,0.132995,0.134521,0.135947,0.13727,0.138489,0.139604,0.140614,0.141517,0.142313,0.143002,0.143583,0.144054,0.144417,0.14467,0.144814,0.144847,0.144771,0.144584,0.144287,0.14388,0.143364,0.142738,0.142002,0.141158,0.140206,0.139146,0.13798,0.136707,0.13533,0.133848,0.132264,0.130578,0.128793,0.12691,0.124931,0.122858,0.120694,0.118442,0.116105,0.113688,0.111194,0.108629,0.105998,0.103307,0.100564,0.0977763,0.0949534,0.0921052,0.0892425,0.0863773,0.0835228,0.0806929,0.0779025,0.0751671,0.0725032,0.0699271,0.0674555,0.0651046,0.0628899,0.0608254,0.0589234,0.0571934,0.0556416,0.0542699,0.0530752,0.0520481,0.0511724,0.0504233,0.0497672,0.04916,0.0485469,0.0478606,0.047022,0.0459394,0.0445056,0.0426212,0.0401541,0.0367905,0.0336121
0.0396074,0.0424361,0.0447405,0.0463662,0.0474855,0.0481785,0.0485545,0.0487108,0.0487366,0.0487093,0.0486948,0.0487476,0.0489114,0.0492198,0.0496972,0.0503598,0.0512163,0.0522693,0.053516,0.0549494,0.0565586,0.0583306,0.06025,0.0623004,0.0644646,0.0667252,0.069065,0.0714673,0.0739161,0.0763964,0.0788942,0.0813966,0.0838918,0.0863694,0.0888196,0.0912342,0.0936055,0.0959269,0.0981926,0.100398,0.102537,0.104608,0.106606,0.108529,0.110373,0.112137,0.113819,0.115416,0.116927,0.118351,0.119687,0.120932,0.122087,0.12315,0.124121,0.124998,0.125781,0.126469,0.127061,0.127559,0.12796,0.128264,0.128472,0.128583,0.128597,0.128513,0.128333,0.128055,0.127681,0.12721,0.126643,0.125979,0.125221,0.124367,0.123418,0.122376,0.121242,0.120015,0.118697,0.11729,0.115794,0.114212,0.112544,0.110794,0.108962,0.107052,0.105067,0.103011,0.100886,0.0986971,0.09645,0.0941501,0.0918038,0.0894186,0.0870027,0.0845653,0.0821167,0.0796683,0.0772323,0.0748222,0.0724524,0.0701381,0.0678953,0.0657404,0.0636902,0.0617613,0.0599698,0.0583308,0.0568579,0.0555625,0.054453,0.0535342,0.0528065,0.0522648,0.0518977,0.0516864,0.0516043,0.0516155,0.0516741,0.0517242,0.0516984,0.0515184,0.0510941,0.0503283,0.0490983,0.0473167,0.0448244,0.0409061
0.0482855,0.0504562,0.0520585,0.0529639,0.053358,0.0533526,0.053044,0.052527,0.0518883,0.0512046,0.0505417,0.0499546,0.0494877,0.0491759,0.0490448,0.0491116,0.0493864,0.0498724,0.0505676,0.0514655,0.0525555,0.0538245,0.0552571,0.0568366,0.0585453,0.0603655,0.0622792,0.0642693,0.0663191,0.068413,0.0705366,0.0726764,0.0748203,0.0769572,0.0790772,0.0811717,0.0832328,0.0852538,0.0872288,0.0891525,0.0910206,0.092829,0.0945745,0.0962541,0.0978653,0.0994058,0.100874,0.102267,0.103585,0.104826,0.105989,0.107072,0.108075,0.108997,0.109837,0.110595,0.11127,0.111862,0.112369,0.112792,0.11313,0.113384,0.113552,0.113636,0.113634,0.113546,0.113374,0.113116,0.112773,0.112346,0.111834,0.111238,0.110559,0.109797,0.108952,0.108025,0.107018,0.10593,0.104763,0.103519,0.102197,0.100801,0.0993311,0.0977899,0.0961794,0.0945022,0.0927614,0.0909604,0.0891029,0.0871936,0.0852376,0.0832407,0.0812097,0.0791522,0.0770767,0.0749927,0.072911,0.0708431,0.068802,0.0668015,0.0648565,0.0629827,0.0611966,0.059515,0.0579551,0.0565337,0.055267,0.0541702,0.0532567,0.0525373,0.05202,0.0517087,0.0516025,0.0516951,0.0519736,0.0524178,0.0529993,0.0536808,0.0544156,0.0551468,0.0558074,0.0563198,0.0565974,0.0565413,0.0560619,0.0549977,0.053507,0.0507715
0.0569415,0.0591948,0.0598556,0.0599493,0.059588,0.0588425,0.0578133,0.0565928,0.0552661,0.0539091,0.052587,0.051355,0.0502582,0.0493317,0.048602,0.048087,0.0477972,0.0477364,0.0479027,0.0482897,0.0488867,0.0496803,0.0506547,0.0517927,0.0530759,0.0544859,0.0560042,0.0576126,0.0592941,0.0610322,0.0628119,0.0646191,0.0664411,0.0682665,0.0700851,0.0718877,0.0736663,0.075414,0.0771247,0.0787931,0.0804146,0.0819854,0.0835021,0.0849617,0.0863619,0.0877004,0.0889754,0.0901854,0.0913289,0.0924047,0.0934118,0.0943492,0.0952161,0.0960118,0.0967357,0.0973872,0.0979658,0.0984711,0.0989028,0.0992605,0.099544,0.0997531,0.0998878,0.0999478,0.0999333,0.0998442,0.0996806,0.0994427,0.0991306,0.0987447,0.0982851,0.0977524,0.0971469,0.0964692,0.0957198,0.0948993,0.0940086,0.0930486,0.09202,0.0909242,0.0897624,0.0885359,0.0872466,0.0858963,0.0844872,0.083022,0.0815036,0.0799354,0.0783215,0.0766664,0.0749755,0.0732547,0.0715111,0.0697524,0.0679876,0.0662265,0.0644803,0.0627611,0.0610823,0.0594584,0.0579048,0.0564378,0.0550745,0.0538324,0.0527292,0.0517821,0.0510079,0.0504219,0.0500376,0.0498658,0.0499142,0.0501863,0.0506807,0.05139,0.0523006,0.0533912,0.0546324,0.055986,0.0574045,0.0588308,0.0601982,0.0614301,0.0624404,0.0631394,0.063408,0.0632228,0.0621623,0.0616075
0.0677783,0.0682537,0.0680231,0.0673269,0.066157,0.0646388,0.0628605,0.0609127,0.0588795,0.0568357,0.0548464,0.0529665,0.0512413,0.0497062,0.0483878,0.0473044,0.0464665,0.0458779,0.0455368,0.0454362,0.0455651,0.0459095,0.0464529,0.0471772,0.0480635,0.0490923,0.0502441,0.0515003,0.0528426,0.054254,0.0557186,0.0572217,0.0587502,0.060292,0.0618364,0.063374,0.0648965,0.0663967,0.0678683,0.0693059,0.0707049,0.0720613,0.0733718,0.0746334,0.0758436,0.0770006,0.0781023,0.0791474,0.0801345,0.0810625,0.0819304,0.0827374,0.0834827,0.0841658,0.0847861,0.0853431,0.0858364,0.0862656,0.0866305,0.0869309,0.0871666,0.0873374,0.0874433,0.0874842,0.0874601,0.0873712,0.0872174,0.0869991,0.0867163,0.0863694,0.0859587,0.0854845,0.0849472,0.0843473,0.0836855,0.0829623,0.0821785,0.0813348,0.0804323,0.079472,0.0784551,0.0773831,0.0762577,0.0750807,0.0738543,0.0725812,0.0712644,0.0699074,0.0685142,0.0670896,0.065639,0.0641687,0.0626859,0.0611988,0.0597165,0.0582494,0.0568092,0.0554085,0.0540613,0.0527828,0.051589,0.0504972,0.0495249,0.0486907,0.0480127,0.047509,0.0471969,0.0470923,0.0472091,0.0475584,0.0481479,0.0489811,0.0500564,0.051366,0.0528957,0.0546237,0.05652,0.0585458,0.0606532,0.062785,0.0648747,0.0668465,0.0686164,0.0700905,0.0711825,0.0717358,0.0718079,0.070393
0.0779941,0.0776865,0.0766365,0.0750431,0.0730475,0.0707302,0.0681802,0.0654867,0.0627325,0.0599919,0.0573296,0.0548004,0.0524493,0.0503119,0.0484148,0.0467759,0.0454056,0.0443076,0.0434792,0.0429129,0.0425972,0.0425171,0.0426551,0.0429923,0.0435085,0.0441833,0.0449964,0.0459278,0.0469586,0.0480708,0.0492477,0.0504739,0.0517356,0.0530201,0.0543163,0.0556144,0.0569058,0.0581829,0.0594392,0.0606693,0.0618683,0.0630323,0.0641578,0.065242,0.0662823,0.0672769,0.0682238,0.0691217,0.0699693,0.0707655,0.0715095,0.0722006,0.072838,0.0734212,0.0739498,0.0744233,0.0748414,0.0752038,0.0755104,0.0757608,0.075955,0.076093,0.0761746,0.0761999,0.0761688,0.0760816,0.0759383,0.0757391,0.0754842,0.0751739,0.0748084,0.0743882,0.0739135,0.073385,0.0728032,0.0721686,0.0714819,0.070744,0.0699558,0.0691182,0.0682326,0.0673003,0.0663229,0.0653024,0.064241,0.0631413,0.0620064,0.0608399,0.0596459,0.0584293,0.0571958,0.0559518,0.0547048,0.0534634,0.0522372,0.051037,0.049875,0.0487645,0.0477201,0.0467578,0.0458944,0.045148,0.0445372,0.0440811,0.0437991,0.04371,0.0438319,0.0441815,0.0447733,0.0456191,0.0467269,0.0481005,0.0497382,0.0516326,0.0537691,0.0561256,0.0586718,0.0613686,0.064168,0.0670126,0.069836,0.072563,0.0751099,0.077389,0.0792961,0.0807815,0.0817498,0.0818047
0.0879989,0.087407,0.0855089,0.0830779,0.0802368,0.0771018,0.0737639,0.0703107,0.0668248,0.0633802,0.0600412,0.0568626,0.0538891,0.0511561,0.0486899,0.046508,0.0446204,0.0430298,0.0417332,0.0407221,0.0399837,0.0395022,0.0392589,0.0392336,0.0394051,0.0397517,0.0402518,0.0408846,0.0416298,0.0424687,0.0433836,0.0443583,0.0453783,0.0464304,0.0475028,0.0485854,0.049669,0.0507459,0.0518094,0.0528538,0.0538741,0.0548663,0.0558268,0.0567528,0.0576419,0.0584919,0.0593012,0.0600683,0.0607922,0.0614717,0.0621061,0.0626947,0.0632368,0.063732,0.0641798,0.06458,0.0649323,0.0652364,0.0654921,0.0656993,0.0658579,0.0659679,0.0660293,0.066042,0.0660062,0.065922,0.0657894,0.0656087,0.0653801,0.0651038,0.0647801,0.0644094,0.0639921,0.0635286,0.0630194,0.0624651,0.0618664,0.061224,0.0605389,0.059812,0.0590445,0.0582378,0.0573936,0.0565138,0.0556006,0.0546567,0.0536852,0.0526897,0.0516747,0.050645,0.0496066,0.0485663,0.0475318,0.0465121,0.0455171,0.0445585,0.0436487,0.0428019,0.0420336,0.0413603,0.0407999,0.0403714,0.0400945,0.0399893,0.0400761,0.0403749,0.0409049,0.0416835,0.0427264,0.044046,0.045651,0.0475458,0.0497292,0.0521938,0.0549252,0.0579014,0.0610919,0.0644576,0.0679502,0.0715122,0.0750773,0.0785703,0.0819083,0.0849992,0.0877662,0.0900125,0.0917779,0.0940032
0.0999798,0.0976678,0.0947716,0.0914053,0.0877041,0.0837399,0.0796014,0.0753784,0.0711531,0.0669995,0.062982,0.0591549,0.055563,0.0522412,0.0492153,0.0465023,0.0441114,0.0420445,0.0402974,0.0388606,0.0377202,0.0368588,0.0362566,0.0358919,0.0357422,0.0357845,0.0359958,0.0363541,0.0368381,0.0374279,0.0381048,0.0388518,0.0396537,0.0404964,0.0413679,0.0422572,0.043155,0.0440531,0.0449446,0.0458236,0.046685,0.0475245,0.0483386,0.0491244,0.0498794,0.0506016,0.0512892,0.051941,0.0525557,0.0531323,0.0536702,0.0541687,0.0546271,0.0550452,0.0554225,0.0557587,0.0560536,0.056307,0.0565188,0.0566889,0.0568171,0.0569036,0.0569483,0.0569512,0.0569125,0.0568321,0.0567104,0.0565474,0.0563434,0.0560986,0.0558133,0.0554878,0.0551225,0.0547179,0.0542744,0.0537925,0.0532729,0.0527165,0.0521239,0.0514962,0.0508346,0.0501405,0.0494155,0.0486615,0.0478807,0.0470761,0.0462506,0.0454081,0.0445531,0.0436907,0.0428271,0.0419694,0.0411256,0.0403051,0.0395185,0.0387778,0.0380963,0.0374888,0.0369716,0.0365623,0.0362797,0.0361437,0.0361753,0.0363957,0.0368265,0.0374888,0.0384029,0.0395877,0.0410596,0.0428322,0.0449152,0.0473137,0.050027,0.0530483,0.0563637,0.0599511,0.0637801,0.0678117,0.0719973,0.0762793,0.0805912,0.0848578,0.0889956,0.0929159,0.0965163,0.0997241,0.10242,0.103867
0.111135,0.107983,0.104276,0.100013,0.0954385,0.0906303,0.0856823,0.0806817,0.0757115,0.0708459,0.0661491,0.0616755,0.0574695,0.0535657,0.0499892,0.0467562,0.0438752,0.0413468,0.0391658,0.0373211,0.0357975,0.0345763,0.0336359,0.0329532,0.0325042,0.0322642,0.0322092,0.0323155,0.0325608,0.0329238,0.033385,0.0339264,0.0345319,0.0351868,0.0358783,0.0365951,0.0373273,0.0380665,0.0388054,0.0395378,0.0402584,0.040963,0.0416479,0.0423101,0.042947,0.0435567,0.0441374,0.0446877,0.0452067,0.0456932,0.0461466,0.0465663,0.0469518,0.0473026,0.0476185,0.0478992,0.0481445,0.0483543,0.0485284,0.0486667,0.0487693,0.0488362,0.0488673,0.0488627,0.0488225,0.0487468,0.0486358,0.0484897,0.0483085,0.0480927,0.0478424,0.047558,0.0472397,0.0468882,0.0465037,0.0460868,0.0456381,0.0451584,0.0446485,0.0441094,0.0435422,0.0429483,0.0423294,0.0416874,0.0410246,0.0403438,0.0396482,0.0389419,0.0382294,0.0375161,0.0368085,0.0361138,0.0354406,0.0347987,0.0341992,0.0336548,0.0331794,0.0327888,0.0325,0.0323316,0.0323035,0.0324369,0.0327538,0.0332768,0.0340289,0.0350324,0.0363091,0.0378791,0.0397601,0.041967,0.0445104,0.0473965,0.0506255,0.0541912,0.0580802,0.0622707,0.0667325,0.0714265,0.076304,0.0813072,0.0863691,0.0914141,0.0963583,0.10111,0.105588,0.10965,0.112994,0.116541
0.122906,0.118878,0.114044,0.108877,0.103416,0.0977601,0.091995,0.0862116,0.0804928,0.0749133,0.0695374,0.0644197,0.0596041,0.0551248,0.0510062,0.0472638,0.0439047,0.0409287,0.0383288,0.0360926,0.0342034,0.0326405,0.0313809,0.0303998,0.0296715,0.0291697,0.0288689,0.0287439,0.0287711,0.028928,0.029194,0.0295501,0.0299792,0.0304661,0.0309971,0.0315605,0.0321458,0.0327442,0.0333482,0.0339512,0.034548,0.0351339,0.0357053,0.036259,0.0367925,0.0373037,0.0377909,0.0382528,0.0386881,0.0390962,0.0394761,0.0398274,0.0401495,0.0404421,0.040705,0.0409378,0.0411405,0.0413129,0.0414548,0.0415664,0.0416474,0.0416981,0.0417183,0.0417081,0.0416677,0.0415972,0.0414967,0.0413664,0.0412064,0.041017,0.0407985,0.0405511,0.0402752,0.0399712,0.0396395,0.0392806,0.0388951,0.0384838,0.0380473,0.0375868,0.0371033,0.0365983,0.0360734,0.0355305,0.0349721,0.034401,0.0338206,0.033235,0.0326488,0.0320679,0.0314988,0.0309493,0.0304283,0.029946,0.0295143,0.0291463,0.0288569,0.0286626,0.0285814,0.0286329,0.0288383,0.02922,0.0298012,0.030606,0.0316588,0.0329834,0.0346031,0.0365395,0.0388117,0.0414358,0.0444241,0.0477834,0.0515153,0.0556142,0.0600674,0.0648535,0.0699425,0.0752953,0.0808631,0.0865876,0.0924011,0.0982274,0.103981,0.109573,0.114894,0.119925,0.124255,0.129456
0.134013,0.129793,0.124039,0.117963,0.111626,0.105114,0.0985285,0.0919584,0.0854886,0.0791942,0.0731401,0.0673807,0.0619598,0.0569112,0.0522585,0.0480162,0.0441903,0.040779,0.037774,0.0351613,0.0329221,0.0310342,0.0294728,0.0282112,0.0272218,0.0264768,0.0259489,0.0256116,0.0254396,0.0254092,0.0254987,0.0256881,0.0259592,0.0262961,0.0266844,0.0271116,0.0275671,0.0280414,0.0285267,0.0290162,0.0295044,0.0299865,0.0304587,0.0309177,0.031361,0.0317865,0.0321925,0.0325775,0.0329404,0.0332804,0.0335968,0.0338889,0.0341565,0.034399,0.0346164,0.0348082,0.0349745,0.035115,0.0352298,0.0353188,0.035382,0.0354194,0.035431,0.035417,0.0353774,0.0353123,0.0352219,0.0351063,0.0349657,0.0348004,0.0346105,0.0343964,0.0341584,0.0338968,0.0336121,0.0333047,0.0329752,0.0326243,0.0322528,0.0318617,0.0314522,0.0310255,0.0305835,0.030128,0.0296616,0.0291873,0.0287084,0.0282292,0.0277547,0.0272909,0.0268445,0.0264239,0.0260382,0.0256984,0.0254168,0.0252072,0.0250855,0.0250688,0.0251764,0.0254289,0.0258488,0.0264597,0.0272863,0.0283542,0.0296893,0.031317,0.0332623,0.0355482,0.0381957,0.0412221,0.0446411,0.0484611,0.0526845,0.0573067,0.0623156,0.0676906,0.0734018,0.07941,0.0856661,0.0921113,0.0986774,0.105287,0.111854,0.118284,0.124484,0.130316,0.135829,0.140357
0.146911,0.141005,0.134288,0.127292,0.120053,0.112684,0.105272,0.0979127,0.0906901,0.0836803,0.0769489,0.0705503,0.0645283,0.0589159,0.0537363,0.0490027,0.0447198,0.0408846,0.0374868,0.0345108,0.031936,0.0297382,0.0278906,0.0263645,0.0251306,0.0241592,0.0234213,0.0228886,0.0225346,0.0223341,0.0222641,0.0223035,0.0224333,0.0226365,0.0228982,0.0232052,0.0235462,0.0239115,0.0242928,0.0246831,0.0250765,0.0254682,0.0258541,0.026231,0.0265962,0.0269475,0.0272832,0.0276018,0.0279023,0.0281838,0.0284455,0.0286869,0.0289077,0.0291074,0.0292859,0.0294428,0.0295782,0.029692,0.0297839,0.0298542,0.0299026,0.0299293,0.0299344,0.0299178,0.0298797,0.0298202,0.0297394,0.0296375,0.0295147,0.029371,0.0292069,0.0290225,0.0288181,0.0285942,0.028351,0.0280891,0.0278089,0.0275113,0.027197,0.0268669,0.0265222,0.0261644,0.025795,0.0254163,0.0250306,0.0246411,0.0242514,0.0238658,0.0234896,0.023129,0.0227911,0.0224845,0.022219,0.0220061,0.0218586,0.0217913,0.0218206,0.0219649,0.0222444,0.022681,0.0232983,0.0241214,0.0251766,0.026491,0.028092,0.030007,0.0322624,0.0348832,0.0378917,0.0413073,0.045145,0.0494145,0.0541194,0.0592563,0.0648138,0.0707718,0.0771006,0.0837611,0.0907038,0.0978693,0.105188,0.112582,0.119963,0.127236,0.134299,0.141092,0.147571,0.153397
0.158592,0.152287,0.144758,0.136815,0.12869,0.120455,0.112216,0.104065,0.0960882,0.0883629,0.080955,0.0739194,0.0672997,0.0611285,0.0554282,0.0502108,0.0454799,0.0412306,0.0374511,0.0341237,0.031226,0.0287316,0.0266117,0.0248356,0.023372,0.0221893,0.0212565,0.0205439,0.0200233,0.0196681,0.0194539,0.0193585,0.019362,0.0194463,0.0195959,0.0197969,0.0200374,0.0203072,0.0205977,0.0209016,0.0212127,0.0215261,0.0218374,0.0221434,0.0224412,0.0227286,0.0230039,0.0232656,0.0235125,0.0237438,0.0239588,0.024157,0.0243379,0.0245013,0.0246468,0.0247743,0.0248837,0.0249749,0.0250479,0.0251026,0.0251391,0.0251573,0.0251574,0.0251394,0.0251034,0.0250495,0.0249778,0.0248884,0.0247816,0.0246575,0.0245163,0.0243583,0.0241837,0.023993,0.0237864,0.0235644,0.0233276,0.0230766,0.0228123,0.0225355,0.0222476,0.0219498,0.0216439,0.0213321,0.021017,0.0207017,0.02039,0.0200864,0.0197964,0.0195264,0.0192841,0.0190783,0.0189194,0.0188193,0.0187917,0.0188521,0.0190179,0.0193083,0.0197446,0.0203502,0.0211498,0.0221701,0.023439,0.0249851,0.0268378,0.0290261,0.0315782,0.0345209,0.0378785,0.041672,0.0459178,0.0506273,0.0558054,0.0614498,0.0675498,0.0740859,0.0810288,0.0883391,0.095967,0.103852,0.111925,0.120103,0.128299,0.136414,0.144354,0.151939,0.159209,0.164374