-0,-0,-0,-0,-0,-0,-0,-0,-0,-0,-0,-0,-0,-0,-0,-0,-0,-0,-0,-0,-0,-0,-0,-0,-0,-0,-0,-0,-0,-0,-0,-0,-0,-0,-0,-0,-0,-0,-0,-0,-0,-0,-0,-0,-0,-0,-0,-0,-0,-0,-0,-0,-0,-0,-0,-0,-0,-0,-0,-0,-0,-0,-0,-0,-0,-0,-0,-0,-0,-0,-0,-0,-0,-0,-0,-0,-0,-0,-0,-0,-0,-0,-0,-0,-0,-0,-0,-0,-0,-0,-0,-0,-0,-0,-0,-0,-0,-0,-0,-0,-0,-0,-0,-0,-0,-0,-0,-0,-0,-0,-0,-0,-0,-0,-0,-0,-0,-0,-0,-0,-0,-0,-0,-0,-0,-0,-0,-0
-0,2.83491e-08,1.0708e-07,2.03611e-07,2.92026e-07,3.55579e-07,3.84249e-07,3.72428e-07,3.17354e-07,2.18119e-07,7.50364e-08,-1.10767e-07,-3.37623e-07,-6.0351e-07,-9.06184e-07,-1.24327e-06,-1.61235e-06,-2.01096e-06,-2.43669e-06,-2.88717e-06,-3.36009e-06,-3.85325e-06,-4.36449e-06,-4.89179e-06,-5.43318e-06,-5.9868e-06,-6.55088e-06,-7.12373e-06,-7.70374e-06,-8.28936e-06,-8.87912e-06,-9.4716e-06,-1.00654e-05,-1.06593e-05,-1.12519e-05,-1.18421e-05,-1.24285e-05,-1.30099e-05,-1.35853e-05,-1.41533e-05,-1.47128e-05,-1.52627e-05,-1.58017e-05,-1.63287e-05,-1.68425e-05,-1.73419e-05,-1.78256e-05,-1.82926e-05,-1.87415e-05,-1.91712e-05,-1.95805e-05,-1.99681e-05,-2.03329e-05,-2.06737e-05,-2.09892e-05,-2.12785e-05,-2.15403e-05,-2.17735e-05,-2.19771e-05,-2.21502e-05,-2.22918e-05,-2.24009e-05,-2.24769e-05,-2.25189e-05,-2.25263e-05,-2.24986e-05,-2.24353e-05,-2.23361e-05,-2.22008e-05,-2.20291e-05,-2.18213e-05,-2.15773e-05,-2.12975e-05,-2.09824e-05,-2.06324e-05,-2.02484e-05,-1.98312e-05,-1.93818e-05,-1.89014e-05,-1.83914e-05,-1.78531e-05,-1.72884e-05,-1.66988e-05,-1.60864e-05,-1.54532e-05,-1.48013e-05,-1.4133e-05,-1.34508e-05,-1.2757e-05,-1.20543e-05,-1.13454e-05,-1.06328e-05,-9.91947e-06,-9.20811e-06,-8.50154e-06,-7.80258e-06,-7.11406e-06,-6.43875e-06,-5.7794e-06,-5.13869e-06,-4.51926e-06,-3.92363e-06,-3.35424e-06,-2.81339e-06,-2.30327e-06,-1.8259e-06,-1.38317e-06,-9.76762e-07,-6.08166e-07,-2.78666e-07,1.06925e-08,2.59117e-07,4.661e-07,6.31447e-07,7.55315e-07,8.38267e-07,8.81332e-07,8.86096e-07,8.54813e-07,7.90572e-07,6.9752e-07,5.81178e-07,4.48906e-07,3.1053e-07,1.79151e-07,7.17605e-08,7.98115e-09,-0
-0,1.07176e-07,3.41313e-07,6.10051e-07,8.40354e-07,9.80921e-07,9.98144e-07,8.71429e-07,5.89421e-07,1.47255e-07,-4.55382e-07,-1.21561e-06,-2.12835e-06,-3.18697e-06,-4.38384e-06,-5.71067e-06,-7.15882e-06,-8.71946e-06,-1.03838e-05,-1.2143e-05,-1.39886e-05,-1.59122e-05,-1.79058e-05,-1.99617e-05,-2.20723e-05,-2.42305e-05,-2.64296e-05,-2.86628e-05,-3.09241e-05,-3.32073e-05,-3.55067e-05,-3.78167e-05,-4.0132e-05,-4.24473e-05,-4.47575e-05,-4.70577e-05,-4.9343e-05,-5.16088e-05,-5.38501e-05,-5.60624e-05,-5.8241e-05,-6.03813e-05,-6.24786e-05,-6.45283e-05,-6.65257e-05,-6.84661e-05,-7.0345e-05,-7.21575e-05,-7.3899e-05,-7.55649e-05,-7.71504e-05,-7.8651e-05,-8.00619e-05,-8.13787e-05,-8.25968e-05,-8.3712e-05,-8.47199e-05,-8.56164e-05,-8.63976e-05,-8.70597e-05,-8.75992e-05,-8.80128e-05,-8.82974e-05,-8.84504e-05,-8.84693e-05,-8.83522e-05,-8.80974e-05,-8.77038e-05,-8.71704e-05,-8.64971e-05,-8.56839e-05,-8.47316e-05,-8.36414e-05,-8.24149e-05,-8.10546e-05,-7.95632e-05,-7.79443e-05,-7.62017e-05,-7.43401e-05,-7.23647e-05,-7.02812e-05,-6.80958e-05,-6.58153e-05,-6.34472e-05,-6.09991e-05,-5.84795e-05,-5.5897e-05,-5.32607e-05,-5.05803e-05,-4.78654e-05,-4.51262e-05,-4.23731e-05,-3.96165e-05,-3.6867e-05,-3.41354e-05,-3.14324e-05,-2.87688e-05,-2.6155e-05,-2.36015e-05,-2.11186e-05,-1.87161e-05,-1.64038e-05,-1.41907e-05,-1.20857e-05,-1.00969e-05,-8.23217e-06,-6.49837e-06,-4.90188e-06,-3.44827e-06,-2.14225e-06,-9.87639e-07,1.27754e-08,8.57303e-07,1.54549e-06,2.07827e-06,2.45814e-06,2.68942e-06,2.77854e-06,2.73444e-06,2.56914e-06,2.29835e-06,1.94248e-06,1.52772e-06,1.0875e-06,6.6369e-07,3.06801e-07,7.1616e-08,-0
-0,2.04156e-07,6.11055e-07,1.05024e-06,1.39061e-06,1.53747e-06,1.42601e-06,1.01456e-06,2.78752e-07,-7.92991e-07,-2.20294e-06,-3.94659e-06,-6.01458e-06,-8.39407e-06,-1.10699e-05,-1.40251e-05,-1.72421e-05,-2.07023e-05,-2.43874e-05,-2.82789e-05,-3.23585e-05,-3.66085e-05,-4.10116e-05,-4.5551e-05,-5.02105e-05,-5.49748e-05,-5.98287e-05,-6.4758e-05,-6.97489e-05,-7.47881e-05,-7.98628e-05,-8.49608e-05,-9.00701e-05,-9.51791e-05,-0.000100277,-0.000105351,-0.000110393,-0.00011539,-0.000120333,-0.000125211,-0.000130013,-0.00013473,-0.00013935,-0.000143865,-0.000148263,-0.000152534,-0.000156667,-0.000160653,-0.000164482,-0.000168142,-0.000171624,-0.000174917,-0.000178012,-0.000180898,-0.000183566,-0.000186007,-0.00018821,-0.000190167,-0.00019187,-0.000193311,-0.000194481,-0.000195374,-0.000195984,-0.000196304,-0.00019633,-0.000196057,-0.000195483,-0.000194603,-0.000193418,-0.000191926,-0.000190128,-0.000188025,-0.000185621,-0.000182919,-0.000179925,-0.000176644,-0.000173085,-0.000169256,-0.000165167,-0.00016083,-0.000156257,-0.000151462,-0.00014646,-0.000141267,-0.000135899,-0.000130375,-0.000124714,-0.000118936,-0.000113061,-0.00010711,-0.000101106,-9.50707e-05,-8.90272e-05,-8.29984e-05,-7.70076e-05,-7.10779e-05,-6.52325e-05,-5.94943e-05,-5.38859e-05,-4.84294e-05,-4.31462e-05,-3.80572e-05,-3.31821e-05,-2.854e-05,-2.41485e-05,-2.00242e-05,-1.61821e-05,-1.26357e-05,-9.39705e-06,-6.476e-06,-3.88059e-06,-1.61656e-06,3.12778e-07,1.90682e-06,3.16801e-06,4.1022e-06,4.71918e-06,5.03322e-06,5.06392e-06,4.83712e-06,4.38616e-06,3.75338e-06,2.99193e-06,2.16759e-06,1.36024e-06,6.63373e-07,1.78684e-07,-0
-0,2.93555e-07,8.43621e-07,1.39348e-06,1.74861e-06,1.76673e-06,1.34817e-06,4.26903e-07,-1.03709e-06,-3.06402e-06,-5.65915e-06,-8.8166e-06,-1.25223e-05,-1.67561e-05,-2.14937e-05,-2.67077e-05,-3.2369e-05,-3.84471e-05,-4.49111e-05,-5.17301e-05,-5.88734e-05,-6.63108e-05,-7.40128e-05,-8.19508e-05,-9.00971e-05,-9.8425e-05,-0.000106909,-0.000115523,-0.000124244,-0.00013305,-0.000141917,-0.000150823,-0.000159749,-0.000168674,-0.000177578,-0.000186441,-0.000195244,-0.00020397,-0.000212598,-0.000221112,-0.000229493,-0.000237722,-0.000245781,-0.000253653,-0.00026132,-0.000268763,-0.000275964,-0.000282906,-0.00028957,-0.000295939,-0.000301995,-0.00030772,-0.000313097,-0.000318109,-0.000322739,-0.00032697,-0.000330786,-0.000334174,-0.000337117,-0.000339602,-0.000341616,-0.000343147,-0.000344184,-0.000344718,-0.000344739,-0.000344242,-0.000343219,-0.000341668,-0.000339585,-0.00033697,-0.000333825,-0.000330152,-0.000325956,-0.000321245,-0.000316027,-0.000310314,-0.000304118,-0.000297456,-0.000290345,-0.000282804,-0.000274856,-0.000266523,-0.000257832,-0.000248811,-0.000239488,-0.000229895,-0.000220064,-0.00021003,-0.000199828,-0.000189495,-0.000179069,-0.000168587,-0.00015809,-0.000147616,-0.000137207,-0.0001269,-0.000116737,-0.000106756,-9.69968e-05,-8.74966e-05,-7.82923e-05,-6.94197e-05,-6.09127e-05,-5.28037e-05,-4.5123e-05,-3.78988e-05,-3.11569e-05,-2.49203e-05,-1.9209e-05,-1.404e-05,-9.42672e-06,-5.37855e-06,-1.90079e-06,1.006e-06,3.34649e-06,5.13117e-06,6.3772e-06,7.10928e-06,7.36086e-06,7.17554e-06,6.6088e-06,5.73001e-06,4.62469e-06,3.39672e-06,2.16995e-06,1.08794e-06,3.09864e-07,-0
-0,3.58591e-07,9.87315e-07,1.54388e-06,1.7696e-06,1.4738e-06,5.20888e-07,-1.18066e-06,-3.68761e-06,-7.02964e-06,-1.12155e-05,-1.62381e-05,-2.20781e-05,-2.87073e-05,-3.6091e-05,-4.41899e-05,-5.29614e-05,-6.23611e-05,-7.23435e-05,-8.28627e-05,-9.38731e-05,-0.00010533,-0.000117188,-0.000129405,-0.00014194,-0.00015475,-0.000167798,-0.000181046,-0.000194456,-0.000207994,-0.000221626,-0.000235317,-0.000249037,-0.000262753,-0.000276436,-0.000290054,-0.00030358,-0.000316983,-0.000330236,-0.00034331,-0.000356177,-0.000368808,-0.000381177,-0.000393254,-0.000405014,-0.000416427,-0.000427466,-0.000438103,-0.000448312,-0.000458065,-0.000467334,-0.000476093,-0.000484315,-0.000491975,-0.000499046,-0.000505504,-0.000511325,-0.000516486,-0.000520965,-0.000524741,-0.000527794,-0.000530107,-0.000531663,-0.000532448,-0.000532449,-0.000531656,-0.00053006,-0.000527656,-0.00052444,-0.000520412,-0.000515574,-0.000509931,-0.000503491,-0.000496264,-0.000488265,-0.000479511,-0.000470023,-0.000459824,-0.000448941,-0.000437404,-0.000425246,-0.000412503,-0.000399215,-0.000385422,-0.000371171,-0.000356508,-0.000341482,-0.000326146,-0.000310554,-0.00029476,-0.000278822,-0.000262799,-0.000246749,-0.000230732,-0.000214809,-0.000199039,-0.000183484,-0.000168202,-0.000153252,-0.000138691,-0.000124575,-0.000110957,-9.78896e-05,-8.54205e-05,-7.35959e-05,-6.24581e-05,-5.20458e-05,-4.23937e-05,-3.35317e-05,-2.54851e-05,-1.82738e-05,-1.19116e-05,-6.40603e-06,-1.7575e-06,2.04149e-06,5.00714e-06,7.16554e-06,8.55382e-06,9.22181e-06,9.23375e-06,8.67053e-06,7.63205e-06,6.23991e-06,4.63996e-06,3.00437e-06,1.53237e-06,4.48805e-07,-0
-0,3.88943e-07,1.00722e-06,1.43355e-06,1.3483e-06,5.14162e-07,-1.23933e-06,-4.02866e-06,-7.92715e-06,-1.29738e-05,-1.91808e-05,-2.65392e-05,-3.50241e-05,-4.45985e-05,-5.52162e-05,-6.68244e-05,-7.93659e-05,-9.27804e-05,-0.000107006,-0.00012198,-0.000137639,-0.000153922,-0.000170767,-0.000188114,-0.000205906,-0.000224085,-0.000242597,-0.000261389,-0.000280409,-0.000299608,-0.000318936,-0.000338348,-0.000357797,-0.000377239,-0.000396632,-0.000415931,-0.000435096,-0.000454084,-0.000472857,-0.000491372,-0.000509591,-0.000527474,-0.00054498,-0.00056207,-0.000578706,-0.000594848,-0.000610456,-0.000625492,-0.000639917,-0.000653692,-0.00066678,-0.000679142,-0.000690741,-0.000701541,-0.000711506,-0.000720601,-0.000728794,-0.00073605,-0.000742341,-0.000747637,-0.000751911,-0.000755138,-0.000757295,-0.000758364,-0.000758325,-0.000757166,-0.000754875,-0.000751445,-0.00074687,-0.000741152,-0.000734292,-0.000726299,-0.000717184,-0.000706963,-0.000695656,-0.000683288,-0.000669887,-0.000655486,-0.000640125,-0.000623843,-0.00060669,-0.000588714,-0.000569971,-0.00055052,-0.000530423,-0.000509747,-0.00048856,-0.000466936,-0.000444949,-0.000422677,-0.0004002,-0.000377599,-0.000354956,-0.000332357,-0.000309883,-0.000287621,-0.000265653,-0.000244062,-0.00022293,-0.000202337,-0.000182361,-0.000163076,-0.000144554,-0.000126862,-0.000110065,-9.42216e-05,-7.93853e-05,-6.56041e-05,-5.29198e-05,-4.13671e-05,-3.09734e-05,-2.17577e-05,-1.37299e-05,-6.89034e-06,-1.22821e-06,3.2792e-06,6.668e-06,8.9893e-06,1.03111e-05,1.07203e-05,1.03255e-05,9.25949e-06,7.68245e-06,5.7849e-06,3.79045e-06,1.95805e-06,5.83332e-07,-0
-0,3.78432e-07,8.80509e-07,1.01585e-06,4.09916e-07,-1.21728e-06,-4.06837e-06,-8.28294e-06,-1.39495e-05,-2.11153e-05,-2.97951e-05,-3.99776e-05,-5.16315e-05,-6.47097e-05,-7.91536e-05,-9.4896e-05,-0.000111863,-0.000129978,-0.00014916,-0.000169328,-0.000190401,-0.000212296,-0.000234935,-0.000258238,-0.000282129,-0.000306533,-0.000331377,-0.000356592,-0.000382108,-0.00040786,-0.000433782,-0.000459813,-0.00048589,-0.000511955,-0.00053795,-0.000563816,-0.000589499,-0.000614942,-0.000640091,-0.000664892,-0.000689291,-0.000713234,-0.000736669,-0.000759543,-0.000781802,-0.000803395,-0.000824269,-0.000844372,-0.000863652,-0.000882057,-0.000899538,-0.000916043,-0.000931523,-0.000945931,-0.000959217,-0.000971337,-0.000982247,-0.000991903,-0.00100027,-0.0010073,-0.00101296,-0.00101722,-0.00102006,-0.00102144,-0.00102134,-0.00101975,-0.00101664,-0.00101202,-0.00100587,-0.0009982,-0.000989007,-0.000978304,-0.000966108,-0.000952439,-0.000937325,-0.000920798,-0.000902898,-0.000883668,-0.000863159,-0.000841428,-0.000818536,-0.00079455,-0.000769544,-0.000743595,-0.000716786,-0.000689205,-0.000660943,-0.000632097,-0.000602766,-0.000573052,-0.000543061,-0.0005129,-0.000482679,-0.000452507,-0.000422497,-0.000392759,-0.000363405,-0.000334542,-0.00030628,-0.000278723,-0.000251974,-0.000226131,-0.00020129,-0.000177539,-0.000154962,-0.000133638,-0.000113637,-9.50219e-05,-7.78477e-05,-6.216e-05,-4.79944e-05,-3.53758e-05,-2.43172e-05,-1.48186e-05,-6.8658e-06,-4.29161e-07,4.5383e-06,8.10263e-06,1.03512e-05,1.1395e-05,1.13717e-05,1.04486e-05,8.82604e-06,6.74096e-06,4.47046e-06,2.33548e-06,7.04732e-07,-0
-0,3.23472e-07,5.92699e-07,2.59645e-07,-1.0973e-06,-3.79522e-06,-8.06486e-06,-1.40658e-05,-2.18995e-05,-3.16198e-05,-4.32425e-05,-5.67526e-05,-7.21111e-05,-8.92602e-05,-0.000108128,-0.00012863,-0.000150677,-0.000174172,-0.000199015,-0.000225105,-0.00025234,-0.000280617,-0.000309836,-0.000339898,-0.000370706,-0.000402165,-0.000434183,-0.000466671,-0.00049954,-0.000532706,-0.000566087,-0.000599602,-0.000633174,-0.000666724,-0.000700179,-0.000733464,-0.000766508,-0.000799239,-0.000831587,-0.000863481,-0.000894853,-0.000925634,-0.000955755,-0.000985149,-0.00101375,-0.00104148,-0.00106829,-0.00109409,-0.00111884,-0.00114245,-0.00116487,-0.00118604,-0.00120588,-0.00122434,-0.00124135,-0.00125687,-0.00127082,-0.00128317,-0.00129385,-0.00130282,-0.00131003,-0.00131545,-0.00131903,-0.00132075,-0.00132057,-0.00131848,-0.00131445,-0.00130848,-0.00130055,-0.00129067,-0.00127885,-0.0012651,-0.00124944,-0.00123189,-0.0012125,-0.0011913,-0.00116834,-0.00114369,-0.0011174,-0.00108955,-0.00106022,-0.00102949,-0.000997451,-0.000964209,-0.000929867,-0.000894536,-0.000858332,-0.000821378,-0.000783799,-0.000745727,-0.000707294,-0.000668638,-0.000629896,-0.00059121,-0.00055272,-0.000514566,-0.00047689,-0.000439831,-0.000403524,-0.000368103,-0.000333699,-0.000300436,-0.000268435,-0.000237808,-0.000208662,-0.000181096,-0.000155199,-0.000131051,-0.000108721,-8.82674e-05,-6.97346e-05,-5.3154e-05,-3.85422e-05,-2.58994e-05,-1.52079e-05,-6.43092e-06,4.89778e-07,5.63576e-06,9.11441e-06,1.10617e-05,1.16451e-05,1.10674e-05,9.56993e-06,7.43696e-06,5.00001e-06,2.64274e-06,8.0688e-07,-0
-0,2.22108e-07,1.35023e-07,-8.55061e-07,-3.20793e-06,-7.27112e-06,-1.32984e-05,-2.14654e-05,-3.18833e-05,-4.46102e-05,-5.96607e-05,-7.70148e-05,-9.66242e-05,-0.000118419,-0.000142311,-0.000168202,-0.00019598,-0.000225531,-0.000256733,-0.000289462,-0.000323596,-0.000359009,-0.000395579,-0.000433184,-0.000471706,-0.000511028,-0.000551037,-0.000591621,-0.000632673,-0.000674088,-0.000715763,-0.000757599,-0.000799499,-0.000841366,-0.000883108,-0.000924633,-0.000965851,-0.00100667,-0.00104701,-0.00108677,-0.00112588,-0.00116424,-0.00120178,-0.0012384,-0.00127402,-0.00130856,-0.00134193,-0.00137406,-0.00140485,-0.00143423,-0.00146211,-0.00148843,-0.00151309,-0.00153602,-0.00155715,-0.00157641,-0.00159373,-0.00160904,-0.00162227,-0.00163338,-0.0016423,-0.00164898,-0.00165338,-0.00165546,-0.00165519,-0.00165254,-0.00164748,-0.00164001,-0.00163011,-0.00161779,-0.00160306,-0.00158593,-0.00156644,-0.00154461,-0.00152049,-0.00149413,-0.0014656,-0.00143496,-0.00140229,-0.00136769,-0.00133125,-0.00129308,-0.00125328,-0.00121199,-0.00116934,-0.00112545,-0.00108048,-0.00103457,-0.000987886,-0.000940581,-0.00089282,-0.000844773,-0.000796609,-0.000748503,-0.000700625,-0.000653152,-0.000606254,-0.000560103,-0.000514868,-0.000470712,-0.000427795,-0.000386271,-0.000346288,-0.000307985,-0.000271494,-0.000236934,-0.000204416,-0.00017404,-0.000145888,-0.000120034,-9.65315e-05,-7.54199e-05,-5.67197e-05,-4.04315e-05,-2.65347e-05,-1.49853e-05,-5.71365e-06,1.37736e-06,6.41548e-06,9.56185e-06,1.10143e-05,1.10112e-05,9.83516e-06,7.81805e-06,5.34568e-06,2.86386e-06,8.85518e-07,-0
-0,7.3425e-08,-4.97401e-07,-2.3403e-06,-5.94394e-06,-1.16789e-05,-1.98161e-05,-3.05427e-05,-4.39758e-05,-6.01744e-05,-7.915e-05,-0.000100875,-0.00012529,-0.000152311,-0.000181834,-0.000213742,-0.000247904,-0.000284182,-0.000322434,-0.000362513,-0.000404272,-0.000447563,-0.000492239,-0.000538155,-0.000585169,-0.000633142,-0.000681936,-0.000731418,-0.000781459,-0.000831931,-0.000882711,-0.000933678,-0.000984714,-0.0010357,-0.00108653,-0.00113709,-0.00118726,-0.00123695,-0.00128603,-0.00133442,-0.00138199,-0.00142866,-0.0014743,-0.00151883,-0.00156214,-0.00160412,-0.00164467,-0.0016837,-0.0017211,-0.00175678,-0.00179063,-0.00182257,-0.00185249,-0.00188031,-0.00190593,-0.00192928,-0.00195026,-0.00196879,-0.00198481,-0.00199824,-0.00200901,-0.00201707,-0.00202236,-0.00202483,-0.00202445,-0.00202118,-0.002015,-0.00200589,-0.00199384,-0.00197886,-0.00196096,-0.00194016,-0.00191649,-0.00188999,-0.00186072,-0.00182874,-0.00179413,-0.00175697,-0.00171736,-0.00167541,-0.00163123,-0.00158494,-0.0015367,-0.00148664,-0.00143493,-0.00138172,-0.00132719,-0.00127153,-0.00121491,-0.00115753,-0.00109959,-0.00104129,-0.000982838,-0.000924438,-0.000866299,-0.00080863,-0.000751639,-0.00069553,-0.000640506,-0.000586764,-0.000534497,-0.000483889,-0.000435118,-0.000388351,-0.000343745,-0.000301447,-0.000261589,-0.000224288,-0.000189648,-0.000157754,-0.000128672,-0.000102451,-7.91141e-05,-5.86647e-05,-4.10789e-05,-2.63061e-05,-1.42656e-05,-4.84463e-06,2.10467e-06,6.76855e-06,9.37503e-06,1.01979e-05,9.56083e-06,7.84271e-06,5.48279e-06,2.98738e-06,9.37744e-07,-0
-0,-1.22827e-07,-1.30681e-06,-4.20249e-06,-9.318e-06,-1.70393e-05,-2.76481e-05,-4.13378e-05,-5.82272e-05,-7.83729e-05,-0.00010178,-0.00012841,-0.000158192,-0.000191026,-0.00022679,-0.000265345,-0.000306541,-0.000350216,-0.000396205,-0.000444336,-0.000494437,-0.000546336,-0.000599861,-0.000654841,-0.00071111,-0.000768503,-0.000826859,-0.000886021,-0.000945835,-0.00100615,-0.00106682,-0.00112771,-0.00118866,-0.00124955,-0.00131024,-0.00137059,-0.00143049,-0.00148978,-0.00154836,-0.00160608,-0.00166284,-0.00171849,-0.00177293,-0.00182602,-0.00187764,-0.00192768,-0.001976,-0.0020225,-0.00206706,-0.00210954,-0.00214985,-0.00218787,-0.00222348,-0.00225658,-0.00228705,-0.00231481,-0.00233975,-0.00236177,-0.0023808,-0.00239673,-0.00240951,-0.00241905,-0.0024253,-0.0024282,-0.0024277,-0.00242377,-0.00241637,-0.0024055,-0.00239113,-0.00237328,-0.00235196,-0.0023272,-0.00229903,-0.0022675,-0.00223269,-0.00219466,-0.0021535,-0.00210931,-0.00206222,-0.00201233,-0.00195981,-0.00190479,-0.00184743,-0.00178792,-0.00172643,-0.00166317,-0.00159833,-0.00153213,-0.00146478,-0.00139653,-0.00132759,-0.00125821,-0.00118863,-0.00111909,-0.00104984,-0.000981125,-0.000913191,-0.000846278,-0.000780625,-0.000716466,-0.000654025,-0.000593523,-0.000535168,-0.000479157,-0.000425677,-0.000374899,-0.00032698,-0.00028206,-0.00024026,-0.00020168,-0.000166402,-0.000134481,-0.000105948,-8.08076e-05,-5.90337e-05,-4.05695e-05,-2.53241e-05,-1.31695e-05,-3.93812e-06,2.58102e-06,6.64555e-06,8.56409e-06,8.70072e-06,7.48012e-06,5.39347e-06,3.0053e-06,9.61632e-07,-0
-0,-3.66467e-07,-2.29363e-06,-6.44404e-06,-1.33361e-05,-2.33632e-05,-3.68113e-05,-5.38745e-05,-7.46686e-05,-9.92438e-05,-0.000127595,-0.000159673,-0.000195388,-0.000234624,-0.00027724,-0.000323074,-0.000371953,-0.000423692,-0.000478099,-0.000534979,-0.000594132,-0.000655359,-0.000718464,-0.000783248,-0.00084952,-0.000917087,-0.000985765,-0.00105537,-0.00112572,-0.00119665,-0.00126798,-0.00133955,-0.00141118,-0.00148273,-0.00155403,-0.00162493,-0.00169527,-0.0017649,-0.00183368,-0.00190145,-0.00196807,-0.00203339,-0.00209726,-0.00215955,-0.00222011,-0.0022788,-0.00233547,-0.00238999,-0.00244222,-0.00249202,-0.00253925,-0.00258379,-0.0026255,-0.00266426,-0.00269995,-0.00273244,-0.00276162,-0.00278739,-0.00280964,-0.00282827,-0.00284319,-0.00285433,-0.00286161,-0.00286497,-0.00286436,-0.00285972,-0.00285104,-0.00283828,-0.00282145,-0.00280054,-0.00277557,-0.00274658,-0.00271361,-0.00267671,-0.00263597,-0.00259147,-0.00254332,-0.00249163,-0.00243653,-0.00237818,-0.00231673,-0.00225237,-0.00218527,-0.00211564,-0.00204371,-0.00196968,-0.0018938,-0.00181631,-0.00173748,-0.00165757,-0.00157684,-0.00149557,-0.00141404,-0.00133255,-0.00125136,-0.00117077,-0.00109106,-0.00101252,-0.000935411,-0.000860014,-0.00078659,-0.000715393,-0.000646665,-0.000580636,-0.000517523,-0.000457526,-0.000400826,-0.000347587,-0.00029795,-0.000252034,-0.000209932,-0.000171712,-0.000137411,-0.000107035,-8.05596e-05,-5.79209e-05,-3.90184e-05,-2.37099e-05,-1.18087e-05,-3.08011e-06,2.76249e-06,6.06156e-06,7.22029e-06,6.70778e-06,5.06511e-06,2.91219e-06,9.55963e-07,-0
-0,-6.57042e-07,-3.45708e-06,-9.06458e-06,-1.79992e-05,-3.06541e-05,-4.73127e-05,-6.81639e-05,-9.33156e-05,-0.000122807,-0.000156621,-0.00019469,-0.000236909,-0.00028314,-0.00033322,-0.000386965,-0.000444175,-0.000504641,-0.000568145,-0.000634463,-0.00070337,-0.000774639,-0.000848044,-0.000923361,-0.00100037,-0.00107885,-0.0011586,-0.00123939,-0.00132103,-0.00140332,-0.00148606,-0.00156905,-0.00165211,-0.00173505,-0.00181769,-0.00189986,-0.00198136,-0.00206204,-0.00214171,-0.00222021,-0.00229736,-0.00237299,-0.00244695,-0.00251905,-0.00258914,-0.00265706,-0.00272264,-0.00278571,-0.00284612,-0.00290372,-0.00295834,-0.00300984,-0.00305806,-0.00310286,-0.0031441,-0.00318164,-0.00321535,-0.00324511,-0.0032708,-0.00329231,-0.00330953,-0.00332238,-0.00333078,-0.00333464,-0.00333392,-0.00332855,-0.00331851,-0.00330378,-0.00328433,-0.00326019,-0.00323136,-0.00319789,-0.00315983,-0.00311725,-0.00307023,-0.00301888,-0.0029633,-0.00290365,-0.00284007,-0.00277273,-0.00270181,-0.00262752,-0.00255008,-0.00246971,-0.00238666,-0.00230118,-0.00221356,-0.00212408,-0.00203302,-0.00194068,-0.00184739,-0.00175345,-0.00165919,-0.00156493,-0.001471,-0.00137772,-0.00128542,-0.00119443,-0.00110505,-0.00101761,-0.000932398,-0.00084971,-0.000769825,-0.000693007,-0.000619503,-0.000549544,-0.00048334,-0.000421078,-0.000362921,-0.000309008,-0.000259447,-0.000214317,-0.000173663,-0.000137497,-0.000105791,-7.84804e-05,-5.5454e-05,-3.65566e-05,-2.15835e-05,-1.0277e-05,-2.32295e-06,2.65385e-06,5.09416e-06,5.50969e-06,4.48905e-06,2.70454e-06,9.20025e-07,-0
-0,-9.93919e-07,-4.79554e-06,-1.20618e-05,-2.33049e-05,-3.89102e-05,-5.91518e-05,-8.42074e-05,-0.000114172,-0.00014907,-0.000188866,-0.000233474,-0.000282769,-0.000336588,-0.000394745,-0.000457031,-0.000523219,-0.000593073,-0.000666347,-0.000742789,-0.000822144,-0.000904157,-0.000988575,-0.00107514,-0.00116361,-0.00125374,-0.00134528,-0.001438,-0.00153166,-0.00162604,-0.00172091,-0.00181606,-0.00191127,-0.00200633,-0.00210103,-0.00219516,-0.00228853,-0.00238093,-0.00247218,-0.00256206,-0.00265039,-0.00273698,-0.00282163,-0.00290415,-0.00298437,-0.00306207,-0.0031371,-0.00320925,-0.00327835,-0.00334422,-0.00340668,-0.00346555,-0.00352068,-0.00357189,-0.00361903,-0.00366193,-0.00370045,-0.00373446,-0.00376381,-0.00378838,-0.00380806,-0.00382274,-0.00383234,-0.00383676,-0.00383594,-0.00382983,-0.00381839,-0.00380158,-0.0037794,-0.00375186,-0.00371899,-0.00368081,-0.0036374,-0.00358883,-0.0035352,-0.00347662,-0.00341323,-0.00334518,-0.00327265,-0.00319582,-0.00311491,-0.00303015,-0.00294177,-0.00285005,-0.00275525,-0.00265768,-0.00255764,-0.00245545,-0.00235144,-0.00224595,-0.00213934,-0.00203197,-0.00192419,-0.00181638,-0.0017089,-0.00160214,-0.00149644,-0.00139219,-0.00128975,-0.00118945,-0.00109165,-0.000996684,-0.000904858,-0.000816477,-0.000731823,-0.000651157,-0.000574719,-0.000502723,-0.000435356,-0.000372777,-0.000315109,-0.000262447,-0.000214844,-0.000172318,-0.000134843,-0.000102349,-7.4718e-05,-5.17836e-05,-3.33234e-05,-1.90585e-05,-8.64818e-06,-1.68624e-06,2.30397e-06,3.8747e-06,3.65958e-06,2.3802e-06,8.53466e-07,-0
-0,-1.37636e-06,-6.30684e-06,-1.54319e-05,-2.92482e-05,-4.81257e-05,-7.23223e-05,-0.000101999,-0.000137232,-0.000178027,-0.000224326,-0.000276022,-0.000332963,-0.000394964,-0.000461811,-0.000533266,-0.000609077,-0.000688976,-0.000772689,-0.000859933,-0.000950426,-0.00104388,-0.00114001,-0.00123854,-0.00133919,-0.00144167,-0.00154573,-0.00165109,-0.00175749,-0.00186468,-0.00197241,-0.00208043,-0.00218849,-0.00229637,-0.00240382,-0.00251062,-0.00261653,-0.00272133,-0.00282481,-0.00292673,-0.00302687,-0.00312503,-0.00322099,-0.00331452,-0.00340542,-0.00349348,-0.00357848,-0.00366022,-0.0037385,-0.0038131,-0.00388384,-0.00395052,-0.00401295,-0.00407094,-0.00412431,-0.00417289,-0.0042165,-0.00425501,-0.00428824,-0.00431607,-0.00433837,-0.00435501,-0.0043659,-0.00437095,-0.00437007,-0.0043632,-0.00435031,-0.00433136,-0.00430635,-0.00427527,-0.00423817,-0.00419508,-0.00414607,-0.00409123,-0.00403068,-0.00396453,-0.00389294,-0.00381609,-0.00373416,-0.00364738,-0.00355597,-0.0034602,-0.00336033,-0.00325667,-0.00314951,-0.00303921,-0.00292608,-0.00281051,-0.00269285,-0.00257349,-0.00245283,-0.00233126,-0.0022092,-0.00208706,-0.00196526,-0.00184421,-0.00172433,-0.00160602,-0.0014897,-0.00137575,-0.00126457,-0.00115653,-0.00105197,-0.000951253,-0.000854683,-0.000762559,-0.000675152,-0.000592703,-0.000515425,-0.000443499,-0.000377068,-0.000316239,-0.00026108,-0.000211612,-0.000167813,-0.000129611,-9.68835e-05,-6.94514e-05,-4.70777e-05,-2.9463e-05,-1.6242e-05,-6.97899e-06,-1.16344e-06,1.79524e-06,2.57313e-06,1.93801e-06,7.56181e-07,-0
-0,-1.80358e-06,-7.98846e-06,-1.91702e-05,-3.58223e-05,-5.82917e-05,-8.68139e-05,-0.000121527,-0.000162484,-0.000209664,-0.000262987,-0.000322317,-0.000387476,-0.000458251,-0.000534397,-0.000615649,-0.000701723,-0.000792321,-0.000887137,-0.000985859,-0.00108817,-0.00119376,-0.0013023,-0.00141349,-0.00152701,-0.00164256,-0.00175983,-0.00187854,-0.0019984,-0.0021191,-0.00224039,-0.00236198,-0.0024836,-0.00260498,-0.00272587,-0.002846,-0.00296513,-0.00308299,-0.00319934,-0.00331393,-0.00342651,-0.00353685,-0.0036447,-0.00374982,-0.00385197,-0.00395092,-0.00404642,-0.00413826,-0.0042262,-0.00431001,-0.00438947,-0.00446436,-0.00453448,-0.00459961,-0.00465956,-0.00471412,-0.00476312,-0.00480638,-0.00484373,-0.00487502,-0.0049001,-0.00491884,-0.00493113,-0.00493687,-0.00493597,-0.00492837,-0.00491401,-0.00489286,-0.00486492,-0.00483018,-0.00478869,-0.00474049,-0.00468567,-0.00462431,-0.00455653,-0.00448249,-0.00440235,-0.00431631,-0.00422457,-0.00412737,-0.00402499,-0.00391769,-0.0038058,-0.00368962,-0.00356952,-0.00344585,-0.00331901,-0.00318938,-0.00305738,-0.00292345,-0.00278801,-0.00265151,-0.00251442,-0.00237719,-0.00224028,-0.00210416,-0.00196929,-0.00183613,-0.00170513,-0.00157673,-0.00145137,-0.00132945,-0.00121138,-0.00109754,-0.000988285,-0.000883944,-0.000784821,-0.000691189,-0.00060329,-0.000521325,-0.000445461,-0.00037582,-0.000312481,-0.000255477,-0.000204788,-0.000160342,-0.000122013,-8.96116e-05,-6.2887e-05,-4.15215e-05,-2.51268e-05,-1.32397e-05,-5.3175e-06,-7.33726e-07,1.22761e-06,1.37751e-06,6.28223e-07,-0
-0,-2.27472e-06,-9.83764e-06,-2.32715e-05,-4.3019e-05,-6.93972e-05,-0.000102613,-0.000142775,-0.000189907,-0.000243962,-0.000304826,-0.000372336,-0.000446282,-0.000526419,-0.000612473,-0.000704145,-0.000801119,-0.000903065,-0.00100964,-0.00112051,-0.00123532,-0.00135372,-0.00147536,-0.00159989,-0.00172699,-0.0018563,-0.00198749,-0.00212025,-0.00225425,-0.00238917,-0.0025247,-0.00266054,-0.0027964,-0.00293197,-0.00306696,-0.00320109,-0.00333408,-0.00346565,-0.00359551,-0.00372339,-0.00384903,-0.00397215,-0.00409248,-0.00420975,-0.0043237,-0.00443407,-0.0045406,-0.00464303,-0.00474111,-0.00483458,-0.0049232,-0.00500673,-0.00508493,-0.00515757,-0.00522443,-0.0052853,-0.00533997,-0.00538825,-0.00542995,-0.0054649,-0.00549294,-0.00551393,-0.00552775,-0.00553427,-0.00553341,-0.00552508,-0.00550925,-0.00548586,-0.00545491,-0.00541642,-0.0053704,-0.00531693,-0.00525608,-0.00518795,-0.00511269,-0.00503046,-0.00494143,-0.00484582,-0.00474387,-0.00463583,-0.00452201,-0.0044027,-0.00427826,-0.00414903,-0.0040154,-0.00387777,-0.00373657,-0.00359224,-0.00344524,-0.00329603,-0.0031451,-0.00299294,-0.00284007,-0.00268698,-0.00253419,-0.00238222,-0.00223157,-0.00208276,-0.00193628,-0.00179263,-0.00165228,-0.00151569,-0.00138331,-0.00125556,-0.00113283,-0.0010155,-0.000903908,-0.000798353,-0.000699108,-0.000606401,-0.00052042,-0.000441307,-0.000369155,-0.000304006,-0.000245848,-0.00019461,-0.000150162,-0.000112309,-8.0786e-05,-5.526e-05,-3.5321e-05,-2.04802e-05,-1.01652e-05,-3.71558e-06,-3.78138e-07,6.98597e-07,4.69744e-07,-0
-0,-2.78896e-06,-1.18515e-05,-2.77301e-05,-5.08293e-05,-8.14299e-05,-0.000119703,-0.000165724,-0.000219481,-0.000280893,-0.000349814,-0.000426045,-0.000509344,-0.00059943,-0.000695995,-0.000798707,-0.000907214,-0.00102115,-0.00114015,-0.00126382,-0.00139179,-0.00152368,-0.0016591,-0.00179767,-0.00193902,-0.00208277,-0.00222858,-0.00237607,-0.00252489,-0.00267471,-0.00282517,-0.00297594,-0.0031267,-0.00327712,-0.00342688,-0.00357567,-0.00372317,-0.00386907,-0.00401307,-0.00415486,-0.00429415,-0.00443063,-0.00456402,-0.004694,-0.00482031,-0.00494263,-0.0050607,-0.00517421,-0.00528291,-0.00538649,-0.00548471,-0.00557729,-0.00566396,-0.00574449,-0.00581862,-0.00588611,-0.00594675,-0.00600032,-0.00604661,-0.00608544,-0.00611664,-0.00614004,-0.0061555,-0.00616291,-0.00616215,-0.00615316,-0.00613585,-0.00611021,-0.00607621,-0.00603386,-0.00598321,-0.0059243,-0.00585724,-0.00578214,-0.00569915,-0.00560844,-0.0055102,-0.00540468,-0.00529214,-0.00517285,-0.00504715,-0.00491536,-0.00477786,-0.00463504,-0.00448732,-0.00433515,-0.00417899,-0.00401932,-0.00385664,-0.00369147,-0.00352434,-0.00335581,-0.00318641,-0.00301671,-0.00284727,-0.00267866,-0.00251144,-0.00234618,-0.00218341,-0.00202369,-0.00186755,-0.00171548,-0.00156798,-0.00142552,-0.00128853,-0.00115743,-0.0010326,-0.000914367,-0.000803039,-0.000698871,-0.000602077,-0.000512817,-0.000431203,-0.000357289,-0.000291069,-0.000232478,-0.000181383,-0.000137584,-0.000100806,-7.07013e-05,-4.68402e-05,-2.87104e-05,-1.57119e-05,-7.15275e-06,-2.24474e-06,-9.85747e-08,2.80935e-07,-0