0,0,0,0,0,0,0,0,0,0,0,0,0,0,0,0,0,0,0,0,0,0,0,0,0,0,0,0,0,0,0,0,0,0,0,0,0,0,0,0,0,0,0,0,0,0,0,0,0,0,0,0,0,0,0,0,0,0,0,0,0,0,0,0,0,0,0,0,0,0,0,0,0,0,0,0,0,0,0,0,0,0,0,0,0,0,0,0,0,0,0,0,0,0,0,0,0,0,0,0,0,0,0,0,0,0,0,0,0,0,0,0,0,0,0,0,0,0,0,0,0,0,0,0,0,0,0,0
0,6.80569e-06,2.16734e-05,3.87382e-05,5.33625e-05,6.22885e-05,6.33822e-05,5.53358e-05,3.74282e-05,9.35069e-06,-2.89167e-05,-7.71915e-05,-0.00013515,-0.000202372,-0.000278374,-0.000362628,-0.000454585,-0.000553686,-0.000659369,-0.00077108,-0.000888275,-0.00101043,-0.00113702,-0.00126756,-0.00140159,-0.00153864,-0.00167828,-0.00182009,-0.00196368,-0.00210867,-0.00225468,-0.00240136,-0.00254838,-0.0026954,-0.0028421,-0.00298816,-0.00313328,-0.00327716,-0.00341948,-0.00355996,-0.00369831,-0.00383421,-0.00396739,-0.00409755,-0.00422438,-0.0043476,-0.0044669,-0.004582,-0.00469259,-0.00479837,-0.00489905,-0.00499434,-0.00508393,-0.00516755,-0.0052449,-0.00531571,-0.00537971,-0.00543664,-0.00548625,-0.00552829,-0.00556255,-0.00558881,-0.00560688,-0.0056166,-0.0056178,-0.00561037,-0.00559419,-0.00556919,-0.00553532,-0.00549256,-0.00544093,-0.00538046,-0.00531123,-0.00523335,-0.00514697,-0.00505226,-0.00494946,-0.00483881,-0.0047206,-0.00459516,-0.00446285,-0.00432408,-0.00417927,-0.00402889,-0.00387344,-0.00371345,-0.00354946,-0.00338206,-0.00321185,-0.00303945,-0.00286552,-0.00269069,-0.00251564,-0.00234105,-0.0021676,-0.00199596,-0.00182682,-0.00166084,-0.0014987,-0.00134103,-0.00118848,-0.00104164,-0.00090111,-0.000767441,-0.000641156,-0.000522743,-0.000412646,-0.00031127,-0.000218965,-0.000136033,-6.27151e-05,8.11236e-07,5.44387e-05,9.81386e-05,0.00013197,0.000156092,0.000170778,0.000176437,0.000173637,0.00016314,0.000145945,0.000123347,9.70105e-05,6.9056e-05,4.21443e-05,1.94818e-05,4.54761e-06,0
0,1.11638e-05,3.20024e-05,5.37608e-05,6.97603e-05,7.50502e-05,6.61518e-05,4.07751e-05,-2.45124e-06,-6.42055e-05,-0.000144652,-0.000243575,-0.000360487,-0.000494701,-0.000645393,-0.000811647,-0.000992487,-0.0011869,-0.00139387,-0.00161237,-0.0018414,-0.00207996,-0.00232709,-0.00258186,-0.00284336,-0.00311074,-0.00338314,-0.00365978,-0.00393987,-0.00422267,-0.00450747,-0.00479357,-0.0050803,-0.00536701,-0.00565306,-0.00593784,-0.00622073,-0.00650114,-0.00677847,-0.00705214,-0.00732156,-0.00758615,-0.00784534,-0.00809854,-0.00834518,-0.00858467,-0.00881644,-0.00903992,-0.00925451,-0.00945965,-0.00965476,-0.00983927,-0.0100126,-0.0101743,-0.0103236,-0.0104602,-0.0105835,-0.010693,-0.0107882,-0.0108687,-0.010934,-0.0109838,-0.0110177,-0.0110354,-0.0110365,-0.011021,-0.0109885,-0.010939,-0.0108723,-0.0107884,-0.0106874,-0.0105694,-0.0104345,-0.010283,-0.0101151,-0.00993112,-0.0097316,-0.009517,-0.00928788,-0.00904487,-0.00878867,-0.00852006,-0.00823985,-0.00794895,-0.00764832,-0.00733894,-0.0070219,-0.00669829,-0.00636927,-0.00603603,-0.0056998,-0.00536181,-0.00502334,-0.00468569,-0.00435013,-0.00401798,-0.00369052,-0.00336903,-0.00305476,-0.00274896,-0.00245281,-0.00216748,-0.00189407,-0.00163364,-0.00138717,-0.00115559,-0.00093973,-0.000740345,-0.000558094,-0.000393531,-0.000247096,-0.000119105,-9.73596e-06,8.09862e-05,0.000153206,0.00020726,0.000243703,0.000263343,0.000267278,0.000256956,0.000234229,0.000201435,0.000161482,0.000117923,7.49994e-05,3.75674e-05,1.08397e-05,0
0,1.18351e-05,3.18966e-05,4.9748e-05,5.7674e-05,4.98987e-05,2.22267e-05,-2.82275e-05,-0.000103284,-0.000203916,-0.000330439,-0.000482663,-0.000660015,-0.00086164,-0.00108648,-0.00133331,-0.00160085,-0.0018877,-0.00219249,-0.00251378,-0.00285019,-0.00320031,-0.00356279,-0.00393631,-0.00431958,-0.00471135,-0.00511042,-0.00551563,-0.00592585,-0.00633999,-0.00675703,-0.00717592,-0.0075957,-0.00801539,-0.00843407,-0.00885082,-0.00926473,-0.00967492,-0.0100805,-0.0104807,-0.0108745,-0.0112611,-0.0116397,-0.0120094,-0.0123694,-0.0127188,-0.0130568,-0.0133825,-0.0136951,-0.0139938,-0.0142776,-0.0145459,-0.0147977,-0.0150324,-0.015249,-0.0154469,-0.0156252,-0.0157834,-0.0159207,-0.0160364,-0.0161301,-0.016201,-0.0162488,-0.016273,-0.0162731,-0.016249,-0.0162002,-0.0161267,-0.0160283,-0.0159051,-0.015757,-0.0155842,-0.015387,-0.0151657,-0.0149207,-0.0146526,-0.014362,-0.0140497,-0.0137163,-0.0133629,-0.0129905,-0.0126002,-0.0121931,-0.0117706,-0.011334,-0.0108849,-0.0104246,-0.00995485,-0.00947725,-0.0089935,-0.00850535,-0.0080146,-0.00752307,-0.00703259,-0.00654502,-0.0060622,-0.00558597,-0.00511818,-0.0046606,-0.004215,-0.00378309,-0.00336651,-0.00296685,-0.00258559,-0.00222416,-0.00188383,-0.00156582,-0.00127117,-0.00100081,-0.000755509,-0.000535881,-0.000342349,-0.000175139,-3.42573e-05,8.05319e-05,0.000169738,0.000234174,0.000275002,0.000293777,0.000292507,0.000273714,0.000240508,0.000196657,0.000146636,9.56475e-05,4.96024e-05,1.51288e-05,0
0,9.80659e-06,2.38925e-05,3.13463e-05,2.40655e-05,-4.04335e-06,-5.74752e-05,-0.000139396,-0.000251864,-0.000396027,-0.000572299,-0.000780509,-0.00102003,-0.00128989,-0.00158884,-0.00191546,-0.00226818,-0.00264533,-0.00304521,-0.00346607,-0.00390617,-0.00436379,-0.0048372,-0.00532475,-0.00582479,-0.00633575,-0.00685607,-0.00738428,-0.00791892,-0.00845859,-0.00900194,-0.00954763,-0.0100944,-0.010641,-0.0111861,-0.0117286,-0.0122674,-0.0128012,-0.0133289,-0.0138493,-0.0143614,-0.014864,-0.015356,-0.0158362,-0.0163037,-0.0167572,-0.0171957,-0.0176181,-0.0180232,-0.0184101,-0.0187776,-0.0191247,-0.0194503,-0.0197533,-0.020033,-0.0202881,-0.0205178,-0.0207212,-0.0208975,-0.0210458,-0.0211654,-0.0212555,-0.0213156,-0.0213451,-0.0213435,-0.0213105,-0.0212457,-0.0211489,-0.0210199,-0.0208589,-0.0206659,-0.020441,-0.0201847,-0.0198974,-0.0195796,-0.0192321,-0.0188556,-0.0184511,-0.0180196,-0.0175624,-0.0170808,-0.0165761,-0.0160499,-0.0155039,-0.0149398,-0.0143594,-0.0137648,-0.0131579,-0.0125408,-0.0119158,-0.011285,-0.0106507,-0.0100153,-0.00938107,-0.00875037,-0.00812555,-0.00750897,-0.00690294,-0.00630974,-0.00573161,-0.00517072,-0.00462916,-0.00410892,-0.00361191,-0.00313991,-0.00269456,-0.00227735,-0.00188963,-0.00153255,-0.00120708,-0.000913968,-0.000653735,-0.000426644,-0.000232684,-7.15341e-05,5.74638e-05,0.000155344,0.000223558,0.000264026,0.000279186,0.000272058,0.000246296,0.000206247,0.000156995,0.000104402,5.51814e-05,1.71527e-05,0
0,6.05714e-06,1.03886e-05,2.54439e-06,-2.54195e-05,-7.9538e-05,-0.000164306,-0.000282929,-0.000437519,-0.000629272,-0.000858623,-0.00112538,-0.00142887,-0.00176799,-0.00214138,-0.00254741,-0.00298431,-0.00345017,-0.00394302,-0.00446085,-0.00500162,-0.0055633,-0.00614388,-0.00674138,-0.00735386,-0.00797943,-0.00861624,-0.0092625,-0.00991646,-0.0105764,-0.0112407,-0.0119078,-0.012576,-0.0132439,-0.0139099,-0.0145726,-0.0152306,-0.0158823,-0.0165264,-0.0171615,-0.0177863,-0.0183993,-0.0189991,-0.0195845,-0.020154,-0.0207064,-0.0212402,-0.0217542,-0.022247,-0.0227173,-0.0231638,-0.0235853,-0.0239804,-0.0243479,-0.0246867,-0.0249956,-0.0252735,-0.0255192,-0.0257317,-0.0259102,-0.0260537,-0.0261614,-0.0262325,-0.0262665,-0.0262627,-0.0262207,-0.0261402,-0.0260208,-0.0258626,-0.0256655,-0.0254297,-0.0251554,-0.024843,-0.0244931,-0.0241065,-0.0236839,-0.0232263,-0.0227349,-0.022211,-0.021656,-0.0210715,-0.0204591,-0.0198208,-0.0191585,-0.0184744,-0.0177706,-0.0170495,-0.0163135,-0.0155652,-0.014807,-0.0140418,-0.0132722,-0.012501,-0.011731,-0.010965,-0.0102058,-0.00945615,-0.00871891,-0.00799677,-0.00729239,-0.00660836,-0.00594717,-0.0053112,-0.00470272,-0.00412383,-0.0035765,-0.0030625,-0.00258342,-0.00214063,-0.00173527,-0.00136822,-0.00104008,-0.00075115,-0.000501418,-0.000290493,-0.0001176,1.84658e-05,0.000119382,0.000187338,0.000225092,0.00023601,0.000224122,0.000194168,0.00015165,0.000102902,5.52518e-05,1.73652e-05,0
0,1.2599e-06,-6.78217e-06,-3.35296e-05,-8.63398e-05,-0.000170883,-0.000291418,-0.000450995,-0.000651627,-0.000894439,-0.0011798,-0.00150746,-0.00187664,-0.00228615,-0.00273448,-0.00321984,-0.00374028,-0.00429368,-0.00487787,-0.00549056,-0.0061295,-0.00679237,-0.00747691,-0.00818086,-0.00890201,-0.00963819,-0.0103873,-0.0111472,-0.0119159,-0.0126915,-0.0134719,-0.0142555,-0.0150402,-0.0158243,-0.0166062,-0.0173839,-0.0181559,-0.0189204,-0.0196758,-0.0204204,-0.0211527,-0.0218711,-0.0225738,-0.0232593,-0.0239261,-0.0245725,-0.025197,-0.025798,-0.026374,-0.0269235,-0.0274449,-0.0279368,-0.0283977,-0.0288262,-0.0292209,-0.0295804,-0.0299035,-0.030189,-0.0304356,-0.0306423,-0.0308081,-0.030932,-0.0310132,-0.031051,-0.0310447,-0.0309939,-0.0308981,-0.0307572,-0.030571,-0.0303395,-0.030063,-0.0297417,-0.0293762,-0.0289671,-0.0285153,-0.0280217,-0.0274875,-0.0269141,-0.0263029,-0.0256555,-0.0249739,-0.02426,-0.0235159,-0.022744,-0.0219466,-0.0211263,-0.0202858,-0.0194279,-0.0185555,-0.0176715,-0.0167791,-0.0158814,-0.0149815,-0.0140827,-0.0131882,-0.0123012,-0.011425,-0.0105626,-0.00971726,-0.00889201,-0.00808982,-0.00731353,-0.0065659,-0.0058495,-0.00516677,-0.00451993,-0.00391104,-0.00334189,-0.00281407,-0.00232885,-0.00188726,-0.00148998,-0.00113736,-0.000829378,-0.000565612,-0.000345205,-0.00016683,-2.8651e-05,7.17137e-05,0.000137237,0.000171523,0.00017885,0.000164219,0.000133414,9.30971e-05,5.09973e-05,1.62514e-05,0
0,-4.15744e-06,-2.63222e-05,-7.45432e-05,-0.000155295,-0.000273646,-0.000433421,-0.00063736,-0.000887245,-0.00118402,-0.00152792,-0.00191855,-0.00235502,-0.00283602,-0.00335987,-0.00392466,-0.00452825,-0.00516836,-0.00584258,-0.00654846,-0.00728348,-0.00804513,-0.00883089,-0.00963827,-0.0104648,-0.0113081,-0.0121657,-0.0130354,-0.0139148,-0.0148018,-0.0156941,-0.0165897,-0.0174864,-0.0183823,-0.0192752,-0.0201634,-0.0210447,-0.0219173,-0.0227794,-0.0236289,-0.0244641,-0.0252832,-0.0260842,-0.0268655,-0.0276251,-0.0283612,-0.0290722,-0.0297562,-0.0304115,-0.0310363,-0.031629,-0.0321879,-0.0327112,-0.0331975,-0.0336452,-0.0340528,-0.0344188,-0.0347418,-0.0350206,-0.0352539,-0.0354406,-0.0355798,-0.0356703,-0.0357116,-0.0357028,-0.0356435,-0.0355332,-0.0353716,-0.0351588,-0.0348947,-0.0345795,-0.0342138,-0.0337979,-0.0333328,-0.0328193,-0.0322585,-0.0316519,-0.0310009,-0.0303071,-0.0295725,-0.0287991,-0.0279891,-0.027145,-0.0262693,-0.0253647,-0.0244341,-0.0234805,-0.0225071,-0.021517,-0.0205137,-0.0195005,-0.018481,-0.0174587,-0.0164372,-0.0154201,-0.0144111,-0.0134136,-0.0124313,-0.0114677,-0.0105261,-0.00960996,-0.00872238,-0.00786645,-0.00704506,-0.00626092,-0.00551654,-0.00481418,-0.00415589,-0.0035434,-0.00297817,-0.00246133,-0.00199367,-0.00157558,-0.00120707,-0.000887712,-0.000616593,-0.000392317,-0.00021295,-7.59883e-05,2.16769e-05,8.37964e-05,0.000114802,0.000119854,0.000104906,7.68069e-05,4.34783e-05,1.41953e-05,0
0,-9.92657e-06,-4.73383e-05,-0.000118803,-0.000229733,-0.000384419,-0.000586105,-0.000837085,-0.0011388,-0.00149192,-0.00189647,-0.00235186,-0.00285704,-0.00341053,-0.00401051,-0.00465491,-0.00534143,-0.0060676,-0.00683084,-0.00762851,-0.0084579,-0.00931628,-0.0102009,-0.0111091,-0.0120382,-0.0129855,-0.0139484,-0.0149243,-0.0159108,-0.0169055,-0.0179058,-0.0189094,-0.0199141,-0.0209176,-0.0219176,-0.0229119,-0.0238983,-0.0248748,-0.0258393,-0.0267895,-0.0277235,-0.0286391,-0.0295344,-0.0304073,-0.0312558,-0.0320779,-0.0328716,-0.0336349,-0.034366,-0.0350628,-0.0357235,-0.0363463,-0.0369293,-0.0374708,-0.037969,-0.0384223,-0.0388291,-0.039188,-0.0394974,-0.0397561,-0.0399628,-0.0401164,-0.0402159,-0.0402605,-0.0402494,-0.0401821,-0.040058,-0.039877,-0.039639,-0.039344,-0.0389924,-0.0385845,-0.038121,-0.0376028,-0.037031,-0.0364067,-0.0357315,-0.035007,-0.0342351,-0.0334178,-0.0325574,-0.0316564,-0.0307174,-0.0297432,-0.0287369,-0.0277016,-0.0266405,-0.0255572,-0.0244552,-0.0233381,-0.0222097,-0.0210739,-0.0199346,-0.0187957,-0.0176611,-0.0165349,-0.0154209,-0.0143232,-0.0132454,-0.0121913,-0.0111647,-0.0101689,-0.00920741,-0.00828337,-0.00739974,-0.00655928,-0.00576449,-0.00501762,-0.00432058,-0.00367499,-0.0030821,-0.0025428,-0.00205756,-0.00162642,-0.00124898,-0.000924313,-0.000650999,-0.000427055,-0.000249916,-0.000116403,-2.26922e-05,3.5724e-05,6.4079e-05,6.8395e-05,5.55762e-05,3.35521e-05,1.14799e-05,0
0,-1.5878e-05,-6.92213e-05,-0.000165097,-0.000307762,-0.000500614,-0.000746205,-0.00104628,-0.00140184,-0.00181322,-0.00228013,-0.00280176,-0.00337684,-0.00400371,-0.00468038,-0.0054046,-0.0061739,-0.00698564,-0.00783709,-0.00872541,-0.00964771,-0.0106011,-0.0115826,-0.0125893,-0.0136184,-0.014667,-0.0157323,-0.0168115,-0.0179019,-0.0190008,-0.0201056,-0.0212138,-0.0223228,-0.0234302,-0.0245334,-0.0256301,-0.0267179,-0.0277944,-0.0288574,-0.0299045,-0.0309335,-0.031942,-0.0329279,-0.0338889,-0.0348228,-0.0357273,-0.0366004,-0.0374399,-0.0382436,-0.0390095,-0.0397355,-0.0404196,-0.0410598,-0.0416541,-0.0422008,-0.042698,-0.043144,-0.0435373,-0.0438761,-0.0441592,-0.0443852,-0.0445529,-0.0446612,-0.0447093,-0.0446963,-0.0446216,-0.0444847,-0.0442855,-0.0440239,-0.0436999,-0.0433138,-0.0428661,-0.0423577,-0.0417894,-0.0411623,-0.0404779,-0.0397378,-0.0389436,-0.0380976,-0.0372019,-0.0362589,-0.0352715,-0.0342423,-0.0331745,-0.0320713,-0.0309361,-0.0297726,-0.0285844,-0.0273753,-0.0261494,-0.0249108,-0.0236635,-0.0224118,-0.02116,-0.0199123,-0.0186731,-0.0174465,-0.0162369,-0.0150484,-0.013885,-0.0127507,-0.0116493,-0.0105844,-0.00955946,-0.00857777,-0.00764229,-0.00675574,-0.00592056,-0.00513885,-0.00441238,-0.00374254,-0.00313033,-0.00257631,-0.0020806,-0.00164281,-0.00126207,-0.000936964,-0.000665504,-0.000445118,-0.000272613,-0.000144151,-5.52161e-05,-5.77666e-07,2.57653e-05,3.06564e-05,2.18842e-05,8.30988e-06,0
0,-2.19034e-05,-9.15563e-05,-0.000212562,-0.000387989,-0.00062028,-0.000911209,-0.0012619,-0.00167284,-0.00214394,-0.00267457,-0.00326362,-0.00390959,-0.00461057,-0.00536439,-0.00616861,-0.00702058,-0.00791751,-0.00885647,-0.00983446,-0.0108484,-0.0118953,-0.0129719,-0.0140752,-0.0152021,-0.0163496,-0.0175147,-0.0186944,-0.0198858,-0.021086,-0.0222923,-0.0235018,-0.0247119,-0.0259198,-0.0271229,-0.0283186,-0.0295043,-0.0306775,-0.0318356,-0.0329762,-0.0340968,-0.0351949,-0.036268,-0.0373139,-0.03833,-0.0393141,-0.0402637,-0.0411765,-0.0420502,-0.0428826,-0.0436715,-0.0444146,-0.0451099,-0.0457552,-0.0463487,-0.0468883,-0.0473722,-0.0477988,-0.0481662,-0.0484731,-0.048718,-0.0488996,-0.0490168,-0.0490687,-0.0490543,-0.0489731,-0.0488247,-0.0486086,-0.0483249,-0.0479737,-0.0475553,-0.0470703,-0.0465195,-0.0459038,-0.0452246,-0.0444833,-0.0436816,-0.0428214,-0.041905,-0.0409348,-0.0399133,-0.0388435,-0.0377284,-0.0365713,-0.0353756,-0.034145,-0.0328834,-0.0315947,-0.030283,-0.0289526,-0.0276078,-0.0262531,-0.0248931,-0.0235322,-0.0221751,-0.0208263,-0.0194905,-0.0181721,-0.0168756,-0.0156054,-0.0143656,-0.0131605,-0.0119938,-0.0108694,-0.00979064,-0.00876079,-0.0077828,-0.0068593,-0.00599257,-0.00518456,-0.00443679,-0.00375038,-0.00312601,-0.00256388,-0.00206368,-0.0016246,-0.00124526,-0.000923728,-0.000657453,-0.000443282,-0.000277416,-0.000155389,-7.2037e-05,-2.14586e-05,3.0348e-06,8.9815e-06,4.83323e-06,0
0,-2.79332e-05,-0.000114061,-0.000260587,-0.000469401,-0.000741952,-0.0010792,-0.00148157,-0.001949,-0.00248091,-0.00307627,-0.00373366,-0.00445125,-0.00522692,-0.00605824,-0.00694259,-0.00787713,-0.00885887,-0.00988474,-0.0109516,-0.0120561,-0.0131951,-0.0143653,-0.0155634,-0.0167862,-0.0180305,-0.0192932,-0.0205709,-0.0218608,-0.0231597,-0.0244646,-0.0257726,-0.0270807,-0.0283862,-0.0296862,-0.0309778,-0.0322583,-0.0335251,-0.0347753,-0.0360063,-0.0372155,-0.0384002,-0.0395578,-0.0406858,-0.0417814,-0.0428423,-0.0438658,-0.0448495,-0.045791,-0.0466877,-0.0475375,-0.0483378,-0.0490865,-0.0497813,-0.0504202,-0.051001,-0.0515219,-0.051981,-0.0523765,-0.0527068,-0.0529705,-0.0531661,-0.0532926,-0.0533488,-0.0533339,-0.0532473,-0.0530884,-0.052857,-0.052553,-0.0521765,-0.0517279,-0.0512079,-0.0506172,-0.0499569,-0.0492284,-0.0484333,-0.0475733,-0.0466505,-0.0456673,-0.0446261,-0.0435298,-0.0423815,-0.0411842,-0.0399417,-0.0386574,-0.0373353,-0.0359795,-0.0345941,-0.0331836,-0.0317524,-0.0303052,-0.0288467,-0.0273816,-0.0259149,-0.0244514,-0.0229959,-0.0215535,-0.0201287,-0.0187265,-0.0173514,-0.0160079,-0.0147005,-0.0134332,-0.0122101,-0.0110349,-0.00991099,-0.00884157,-0.00782947,-0.00687718,-0.0059868,-0.00516002,-0.0043981,-0.00370183,-0.00307154,-0.00250702,-0.00200754,-0.0015718,-0.00119795,-0.000883502,-0.00062539,-0.000419896,-0.000262655,-0.000148625,-7.20682e-05,-2.65227e-05,-4.77418e-06,1.15689e-06,0
0,-3.39226e-05,-0.000136542,-0.000308743,-0.000551257,-0.000864541,-0.0012487,-0.00170346,-0.00222811,-0.00282159,-0.00348241,-0.00420877,-0.00499852,-0.00584926,-0.00675832,-0.00772284,-0.00873979,-0.00980601,-0.0109182,-0.0120731,-0.0132672,-0.0144972,-0.0157596,-0.017051,-0.018368,-0.0197072,-0.0210653,-0.022439,-0.023825,-0.0252202,-0.0266212,-0.0280252,-0.0294288,-0.0308292,-0.0322233,-0.0336081,-0.0349808,-0.0363383,-0.0376779,-0.0389967,-0.0402919,-0.0415606,-0.0428001,-0.0440076,-0.0451804,-0.0463158,-0.0474111,-0.0484636,-0.0494709,-0.0504302,-0.0513391,-0.0521951,-0.0529958,-0.0537389,-0.0544222,-0.0550435,-0.0556007,-0.0560918,-0.0565151,-0.0568689,-0.0571515,-0.0573615,-0.0574978,-0.0575592,-0.0575447,-0.0574538,-0.0572859,-0.0570408,-0.0567182,-0.0563185,-0.0558419,-0.0552892,-0.0546611,-0.053959,-0.053184,-0.052338,-0.0514228,-0.0504405,-0.0493937,-0.048285,-0.0471173,-0.0458939,-0.0446181,-0.0432936,-0.0419242,-0.0405141,-0.0390675,-0.0375889,-0.0360828,-0.034554,-0.0330074,-0.031448,-0.0298808,-0.0283109,-0.0267435,-0.0251837,-0.0236366,-0.0221075,-0.0206011,-0.0191226,-0.0176767,-0.0162679,-0.0149007,-0.0135794,-0.0123079,-0.0110899,-0.00992882,-0.00882762,-0.00778902,-0.00681531,-0.00590835,-0.00506956,-0.00429988,-0.00359975,-0.00296911,-0.00240734,-0.00191325,-0.00148508,-0.00112048,-0.000816486,-0.0005695,-0.0003753,-0.000229016,-0.000125122,-5.74312e-05,-1.90983e-05,-2.64204e-06,0
0,-3.98432e-05,-0.000158871,-0.000356725,-0.000633023,-0.000987238,-0.00141862,-0.00192614,-0.00250846,-0.00316396,-0.00389069,-0.00468641,-0.00554865,-0.00647469,-0.00746158,-0.00850623,-0.0096054,-0.0107557,-0.0119537,-0.0131959,-0.0144788,-0.0157987,-0.017152,-0.0185353,-0.0199449,-0.0213774,-0.0228292,-0.0242968,-0.025777,-0.0272662,-0.0287612,-0.0302588,-0.0317556,-0.0332485,-0.0347343,-0.0362099,-0.0376722,-0.0391181,-0.0405447,-0.0419489,-0.0433277,-0.0446781,-0.0459972,-0.0472822,-0.0485301,-0.0497381,-0.0509033,-0.052023,-0.0530943,-0.0541147,-0.0550815,-0.055992,-0.0568437,-0.0576343,-0.0583613,-0.0590224,-0.0596156,-0.0601387,-0.0605898,-0.0609672,-0.0612692,-0.0614942,-0.0616411,-0.0617086,-0.0616958,-0.061602,-0.0614267,-0.0611694,-0.0608302,-0.0604093,-0.0599069,-0.0593239,-0.058661,-0.0579196,-0.057101,-0.0562069,-0.0552394,-0.0542007,-0.0530934,-0.0519203,-0.0506844,-0.049389,-0.0480378,-0.0466345,-0.0451832,-0.0436882,-0.0421539,-0.0405849,-0.0389861,-0.0373625,-0.0357191,-0.0340613,-0.0323942,-0.0307233,-0.029054,-0.0273916,-0.0257417,-0.0241094,-0.0225002,-0.0209193,-0.0193716,-0.017862,-0.0163953,-0.0149759,-0.013608,-0.0122956,-0.0110422,-0.00985115,-0.00872531,-0.00766716,-0.00667875,-0.00576167,-0.00491704,-0.00414546,-0.00344699,-0.00282116,-0.00226693,-0.00178268,-0.00136618,-0.00101463,-0.000724578,-0.000491986,-0.000312186,-0.000179901,-8.92513e-05,-3.37818e-05,-6.50853e-06,0
0,-4.5677e-05,-0.00018096,-0.000404322,-0.000714313,-0.00110944,-0.00158811,-0.00214853,-0.0027887,-0.00350643,-0.00429927,-0.00516455,-0.00609941,-0.0071008,-0.00816549,-0.00929013,-0.0104712,-0.0117052,-0.0129885,-0.0143174,-0.0156881,-0.0170969,-0.0185401,-0.0200139,-0.0215148,-0.0230389,-0.0245827,-0.0261426,-0.027715,-0.0292964,-0.0308834,-0.0324725,-0.0340604,-0.0356437,-0.037219,-0.0387832,-0.0403331,-0.0418653,-0.0433767,-0.0448641,-0.0463245,-0.0477547,-0.0491516,-0.0505122,-0.0518334,-0.0531123,-0.0543459,-0.0555313,-0.0566655,-0.0577458,-0.0587694,-0.0597336,-0.0606356,-0.0614731,-0.0622434,-0.0629442,-0.0635733,-0.0641284,-0.0646077,-0.0650092,-0.0653311,-0.065572,-0.0657305,-0.0658053,-0.0657956,-0.0657004,-0.0655193,-0.0652519,-0.0648981,-0.064458,-0.0639322,-0.0633212,-0.0626261,-0.0618479,-0.0609883,-0.060049,-0.0590321,-0.0579399,-0.056775,-0.0555404,-0.0542392,-0.0528749,-0.0514511,-0.049972,-0.0484415,-0.0468643,-0.0452449,-0.0435882,-0.0418992,-0.040183,-0.0384451,-0.0366909,-0.0349258,-0.0331556,-0.0313859,-0.0296223,-0.0278706,-0.0261363,-0.0244249,-0.0227421,-0.021093,-0.0194828,-0.0179164,-0.0163987,-0.014934,-0.0135265,-0.0121801,-0.0108982,-0.009684,-0.00854016,-0.00746893,-0.00647211,-0.00555097,-0.0047063,-0.00393835,-0.0032468,-0.00263078,-0.00208882,-0.00161888,-0.00121831,-0.000883858,-0.000611685,-0.000397357,-0.000235868,-0.000121661,-4.86742e-05,-1.04041e-05,0
0,-5.14132e-05,-0.00020275,-0.000451387,-0.000794851,-0.00123072,-0.00175654,-0.00236978,-0.00306778,-0.00384774,-0.00470668,-0.00564151,-0.00664895,-0.00772559,-0.00886792,-0.0100723,-0.011335,-0.0126522,-0.0140202,-0.015435,-0.0168927,-0.0183895,-0.0199215,-0.0214848,-0.0230755,-0.0246899,-0.0263243,-0.0279748,-0.0296378,-0.0313097,-0.0329868,-0.0346657,-0.0363427,-0.0380144,-0.0396775,-0.0413284,-0.0429638,-0.0445803,-0.0461747,-0.0477436,-0.0492838,-0.0507921,-0.0522651,-0.0536998,-0.0550929,-0.0564414,-0.0577422,-0.0589921,-0.0601882,-0.0613276,-0.0624072,-0.0634244,-0.0643764,-0.0652604,-0.0660739,-0.0668145,-0.0674797,-0.0680673,-0.0685752,-0.0690015,-0.0693444,-0.0696022,-0.0697735,-0.0698571,-0.0698519,-0.069757,-0.069572,-0.0692963,-0.06893,-0.0684732,-0.0679262,-0.0672897,-0.0665648,-0.0657526,-0.0648547,-0.0638728,-0.0628092,-0.0616663,-0.0604466,-0.0591533,-0.0577896,-0.0563591,-0.0548655,-0.0533131,-0.0517061,-0.0500491,-0.048347,-0.0466047,-0.0448275,-0.0430208,-0.0411902,-0.0393412,-0.0374797,-0.0356114,-0.0337424,-0.0318786,-0.0300258,-0.02819,-0.0263769,-0.0245923,-0.0228418,-0.0211307,-0.0194643,-0.0178477,-0.0162854,-0.014782,-0.0133415,-0.0119676,-0.0106638,-0.00943283,-0.0082773,-0.00719917,-0.00619993,-0.00528056,-0.00444149,-0.00368262,-0.00300324,-0.00240208,-0.00187728,-0.0014264,-0.00104639,-0.000733642,-0.000483963,-0.000292635,-0.00015443,-6.36707e-05,-1.43029e-05,0
0,-5.70459e-05,-0.000224206,-0.00049782,-0.000874442,-0.00135074,-0.00192345,-0.00258927,-0.00334488,-0.00418687,-0.00511175,-0.00611594,-0.00719575,-0.00834741,-0.00956708,-0.0108508,-0.0121947,-0.0135947,-0.0150467,-0.0165467,-0.0180907,-0.0196745,-0.0212943,-0.0229458,-0.0246253,-0.0263287,-0.0280522,-0.0297919,-0.031544,-0.0333048,-0.0350705,-0.0368374,-0.0386019,-0.0403604,-0.0421094,-0.0438453,-0.0455646,-0.0472638,-0.0489396,-0.0505884,-0.0522069,-0.0537918,-0.0553396,-0.0568471,-0.0583109,-0.0597279,-0.0610948,-0.0624085,-0.0636657,-0.0648635,-0.0659989,-0.0670688,-0.0680705,-0.0690011,-0.069858,-0.0706386,-0.0713404,-0.0719611,-0.0724985,-0.0729506,-0.0733155,-0.0735915,-0.073777,-0.0738709,-0.073872,-0.0737793,-0.0735923,-0.0733106,-0.072934,-0.0724626,-0.0718969,-0.0712374,-0.0704853,-0.0696416,-0.0687081,-0.0676864,-0.0665789,-0.0653878,-0.0641161,-0.0627668,-0.0613432,-0.059849,-0.0582882,-0.0566648,-0.0549836,-0.053249,-0.0514662,-0.0496404,-0.0477769,-0.0458813,-0.0439593,-0.0420169,-0.04006,-0.0380947,-0.0361272,-0.0341636,-0.0322102,-0.030273,-0.0283581,-0.0264716,-0.0246193,-0.0228068,-0.0210397,-0.0193233,-0.0176624,-0.0160619,-0.014526,-0.0130588,-0.0116638,-0.0103443,-0.00910285,-0.00794177,-0.00686277,-0.00586704,-0.00495524,-0.00412746,-0.00338321,-0.00272144,-0.00214048,-0.00163811,-0.00121152,-0.000857325,-0.000571609,-0.000349937,-0.000187406,-7.8703e-05,-1.81887e-05,0
0,-6.25719e-05,-0.000245302,-0.000543553,-0.000952945,-0.00146928,-0.00208847,-0.00280649,-0.00361935,-0.00452304,-0.00551352,-0.00658674,-0.00773857,-0.00896488,-0.0102615,-0.0116242,-0.0130487,-0.0145308,-0.0160662,-0.0176507,-0.0192801,-0.0209501,-0.0226566,-0.0243955,-0.0261625,-0.0279537,-0.0297651,-0.0315927,-0.0334325,-0.0352806,-0.0371334,-0.0389869,-0.0408374,-0.0426812,-0.0445146,-0.0463339,-0.0481357,-0.0499162,-0.0516719,-0.0533993,-0.0550948,-0.056755,-0.0583765,-0.0599557,-0.0614894,-0.062974,-0.0644064,-0.0657831,-0.0671011,-0.068357,-0.0695478,-0.0706705,-0.071722,-0.0726994,-0.0736001,-0.0744212,-0.0751603,-0.075815,-0.0763829,-0.076862,-0.0772503,-0.0775459,-0.0777474,-0.0778533,-0.0778625,-0.0777741,-0.0775873,-0.0773017,-0.0769171,-0.0764337,-0.0758517,-0.0751719,-0.0743951,-0.0735227,-0.0725561,-0.0714973,-0.0703485,-0.0691121,-0.0677909,-0.0663881,-0.0649072,-0.0633517,-0.0617259,-0.0600339,-0.0582805,-0.0564704,-0.0546088,-0.052701,-0.0507527,-0.0487695,-0.0467574,-0.0447226,-0.0426711,-0.0406094,-0.0385438,-0.0364808,-0.0344267,-0.032388,-0.0303711,-0.0283821,-0.0264273,-0.0245126,-0.0226438,-0.0208264,-0.0190657,-0.0173667,-0.015734,-0.0141718,-0.0126841,-0.0112742,-0.0099451,-0.00869934,-0.00753885,-0.00646507,-0.00547888,-0.00458061,-0.00377001,-0.00304624,-0.00240787,-0.00185292,-0.0013788,-0.000982392,-0.000660044,-0.000407608,-0.000220494,-9.37312e-05,-2.20528e-05,0
0,-6.79902e-05,-0.000266025,-0.00058854,-0.00103026,-0.00158615,-0.00225134,-0.00302108,-0.00389071,-0.00485562,-0.00591124,-0.00705301,-0.0082764,-0.00957686,-0.0109499,-0.0123909,-0.0138955,-0.015459,-0.0170772,-0.0187454,-0.0204594,-0.0222147,-0.024007,-0.0258321,-0.0276856,-0.0295635,-0.0314615,-0.0333757,-0.0353019,-0.0372362,-0.0391747,-0.0411134,-0.0430485,-0.0449762,-0.0468927,-0.0487942,-0.0506771,-0.0525376,-0.054372,-0.0561768,-0.0579483,-0.0596829,-0.0613771,-0.0630273,-0.06463,-0.0661817,-0.067679,-0.0691186,-0.070497,-0.0718109,-0.0730572,-0.0742328,-0.0753344,-0.0763592,-0.0773042,-0.0781668,-0.0789442,-0.0796339,-0.0802336,-0.080741,-0.0811541,-0.0814711,-0.0816903,-0.0818103,-0.0818297,-0.0817477,-0.0815633,-0.0812763,-0.0808862,-0.0803932,-0.0797976,-0.0791,-0.0783013,-0.0774027,-0.0764059,-0.0753127,-0.0741252,-0.072846,-0.071478,-0.0700243,-0.0684883,-0.066874,-0.0651854,-0.0634269,-0.0616032,-0.0597194,-0.0577806,-0.0557924,-0.0537606,-0.0516909,-0.0495897,-0.0474631,-0.0453177,-0.0431598,-0.0409963,-0.0388337,-0.0366788,-0.0345382,-0.0324185,-0.0303263,-0.0282681,-0.02625,-0.0242782,-0.0223585,-0.0204964,-0.0186972,-0.016966,-0.0153071,-0.0137247,-0.0122227,-0.0108041,-0.00947178,-0.00822798,-0.00707437,-0.0060121,-0.00504174,-0.00416328,-0.00337614,-0.00267915,-0.00207054,-0.001548,-0.00110866,-0.000749136,-0.000465565,-0.00025365,-0.000108738,-2.58925e-05,0
0,-7.33009e-05,-0.000286368,-0.000632751,-0.00110633,-0.00170125,-0.00241187,-0.00323275,-0.00415856,-0.00518411,-0.00630428,-0.00751402,-0.00880837,-0.0101824,-0.0116312,-0.0131499,-0.0147338,-0.0163782,-0.0180783,-0.0198295,-0.0216271,-0.0234668,-0.025344,-0.0272542,-0.0291932,-0.0311566,-0.0331402,-0.0351398,-0.0371512,-0.0391704,-0.0411934,-0.0432161,-0.0452346,-0.0472449,-0.0492433,-0.0512258,-0.0531887,-0.0551281,-0.0570403,-0.0589215,-0.0607681,-0.0625763,-0.0643425,-0.066063,-0.0677343,-0.0693527,-0.0709147,-0.0724168,-0.0738556,-0.0752277,-0.0765298,-0.0777586,-0.078911,-0.0799838,-0.0809741,-0.081879,-0.0826958,-0.0834219,-0.0840548,-0.0845922,-0.085032,-0.0853722,-0.0856111,-0.0857471,-0.085779,-0.0857057,-0.0855263,-0.0852403,-0.0848473,-0.0843474,-0.0837408,-0.0830282,-0.0822103,-0.0812884,-0.080264,-0.0791391,-0.0779156,-0.0765963,-0.075184,-0.0736817,-0.0720932,-0.0704222,-0.0686729,-0.0668499,-0.0649578,-0.0630019,-0.0609875,-0.0589202,-0.0568059,-0.0546507,-0.052461,-0.0502433,-0.0480041,-0.0457503,-0.0434887,-0.0412263,-0.03897,-0.0367267,-0.0345035,-0.032307,-0.0301441,-0.0280213,-0.0259449,-0.0239212,-0.021956,-0.0200549,-0.0182231,-0.0164655,-0.0147866,-0.0131903,-0.0116802,-0.0102594,-0.00893036,-0.00769506,-0.00655493,-0.00551081,-0.00456297,-0.00371108,-0.00295422,-0.0022909,-0.00171905,-0.00123608,-0.000838854,-0.00052379,-0.00028687,-0.000123725,-2.97095e-05,0
0,-7.85047e-05,-0.000306325,-0.000676167,-0.00118109,-0.00181446,-0.0025699,-0.00344126,-0.00442259,-0.0055081,-0.00669213,-0.00796916,-0.00933376,-0.0107806,-0.0123045,-0.0139002,-0.0155627,-0.017287,-0.0190682,-0.0209015,-0.022782,-0.0247051,-0.0266661,-0.0286606,-0.030684,-0.0327319,-0.0347999,-0.0368838,-0.0389793,-0.0410823,-0.0431886,-0.0452942,-0.0473949,-0.0494868,-0.051566,-0.0536285,-0.0556704,-0.0576877,-0.0596768,-0.0616337,-0.0635546,-0.0654358,-0.0672734,-0.0690638,-0.0708033,-0.0724881,-0.0741148,-0.0756796,-0.077179,-0.0786096,-0.0799679,-0.0812506,-0.0824544,-0.0835761,-0.0846128,-0.0855613,-0.0864189,-0.0871828,-0.0878505,-0.0884197,-0.088888,-0.0892535,-0.0895143,-0.0896688,-0.0897155,-0.0896534,-0.0894815,-0.0891991,-0.088806,-0.0883019,-0.0876872,-0.0869623,-0.0861281,-0.0851856,-0.0841365,-0.0829826,-0.0817259,-0.0803691,-0.078915,-0.0773667,-0.0757279,-0.0740025,-0.0721946,-0.0703089,-0.0683502,-0.0663238,-0.064235,-0.0620898,-0.0598941,-0.0576542,-0.0553766,-0.0530679,-0.0507352,-0.0483853,-0.0460253,-0.0436625,-0.0413041,-0.0389573,-0.0366292,-0.0343272,-0.0320581,-0.0298289,-0.0276463,-0.0255167,-0.0234464,-0.0214413,-0.0195069,-0.0176485,-0.0158708,-0.0141781,-0.0125743,-0.0110629,-0.00964654,-0.00832758,-0.00710773,-0.00598813,-0.00496931,-0.00405122,-0.00323323,-0.0025141,-0.00189204,-0.00136471,-0.000929246,-0.000582321,-0.00032018,-0.000138708,-3.35095e-05,0