-0,-0,-0,-0,-0,-0,-0,-0,-0,-0,-0,-0,-0,-0,-0,-0,-0,-0,-0,-0,-0,-0,-0,-0,-0,-0,-0,-0,-0,-0,-0,-0,-0,-0,-0,-0,-0,-0,-0,-0,-0,-0,-0,-0,-0,-0,-0,-0,-0,-0,-0,-0,-0,-0,-0,-0,-0,-0,-0,-0,-0,-0,-0,-0,-0,-0,-0,-0,-0,-0,-0,-0,-0,-0,-0,-0,-0,-0,-0,-0,-0,-0,-0,-0,-0,-0,-0,-0,-0,-0,-0,-0,-0,-0,-0,-0,-0,-0,-0,-0,-0,-0,-0,-0,-0,-0,-0,-0,-0,-0,-0,-0,-0,-0,-0,-0,-0,-0,-0,-0,-0,-0,-0,-0,-0,-0,-0,-0
-0,-6.79959e-06,-1.11291e-05,-1.17441e-05,-9.65e-06,-5.85617e-06,-1.06991e-06,4.2478e-06,9.7986e-06,1.53872e-05,2.08843e-05,2.62039e-05,3.12892e-05,3.61036e-05,4.0625e-05,4.48412e-05,4.87478e-05,5.23456e-05,5.56393e-05,5.86364e-05,6.13462e-05,6.37794e-05,6.59472e-05,6.78613e-05,6.95332e-05,7.09742e-05,7.21952e-05,7.32064e-05,7.40174e-05,7.46368e-05,7.50725e-05,7.53315e-05,7.54199e-05,7.53429e-05,7.51049e-05,7.47095e-05,7.41595e-05,7.3457e-05,7.26036e-05,7.16001e-05,7.0447e-05,6.91442e-05,6.76916e-05,6.60886e-05,6.43345e-05,6.24285e-05,6.03701e-05,5.81586e-05,5.57936e-05,5.32751e-05,5.06032e-05,4.77788e-05,4.48031e-05,4.16778e-05,3.84056e-05,3.49895e-05,3.14335e-05,2.77424e-05,2.3922e-05,1.99786e-05,1.59198e-05,1.1754e-05,7.49063e-06,3.13997e-06,-1.28666e-06,-5.77698e-06,-1.03178e-05,-1.48951e-05,-1.94938e-05,-2.40983e-05,-2.86921e-05,-3.32579e-05,-3.7778e-05,-4.22341e-05,-4.66076e-05,-5.08793e-05,-5.50301e-05,-5.90407e-05,-6.28917e-05,-6.65641e-05,-7.0039e-05,-7.3298e-05,-7.63234e-05,-7.9098e-05,-8.16054e-05,-8.38304e-05,-8.57587e-05,-8.73774e-05,-8.86747e-05,-8.96404e-05,-9.02658e-05,-9.0544e-05,-9.04696e-05,-9.00391e-05,-8.92507e-05,-8.81049e-05,-8.66036e-05,-8.47511e-05,-8.25533e-05,-8.00184e-05,-7.71563e-05,-7.39791e-05,-7.05006e-05,-6.67367e-05,-6.27052e-05,-5.84259e-05,-5.39206e-05,-4.9213e-05,-4.43291e-05,-3.92975e-05,-3.41492e-05,-2.89184e-05,-2.36429e-05,-1.83651e-05,-1.31331e-05,-8.0021e-06,-3.03714e-06,1.68397e-06,6.06573e-06,9.98813e-06,1.32965e-05,1.5787e-05,1.71861e-05,1.71294e-05,1.51619e-05,1.08693e-05,4.55679e-06,-0
-0,-2.16734e-05,-3.19326e-05,-3.16891e-05,-2.35502e-05,-1.00197e-05,6.95272e-06,2.59539e-05,4.59851e-05,6.6345e-05,8.65422e-05,0.000106233,0.000125181,0.000143223,0.000160255,0.000176211,0.000191058,0.000204784,0.000217394,0.000228906,0.000239345,0.000248745,0.00025714,0.00026457,0.000271073,0.000276688,0.000281453,0.000285404,0.000288575,0.000290996,0.000292698,0.000293704,0.000294038,0.000293718,0.000292763,0.000291184,0.000288993,0.000286199,0.000282808,0.000278824,0.000274249,0.000269085,0.000263332,0.000256988,0.000250053,0.000242525,0.000234402,0.000225684,0.000216371,0.000206464,0.000195965,0.000184878,0.00017321,0.000160969,0.000148166,0.000134814,0.000120931,0.000106535,9.16494e-05,7.63005e-05,6.05179e-05,4.43347e-05,2.77879e-05,1.09176e-05,-6.23212e-06,-2.36138e-05,-4.11765e-05,-5.8866e-05,-7.66249e-05,-9.4393e-05,-0.000112107,-0.000129702,-0.000147109,-0.00016426,-0.000181083,-0.000197507,-0.000213457,-0.000228862,-0.000243649,-0.000257744,-0.000271078,-0.000283581,-0.000295186,-0.000305829,-0.000315448,-0.000323986,-0.000331389,-0.00033761,-0.000342603,-0.000346332,-0.000348763,-0.000349871,-0.000349636,-0.000348046,-0.000345094,-0.000340782,-0.000335119,-0.00032812,-0.000319811,-0.000310221,-0.000299391,-0.000287365,-0.000274199,-0.000259954,-0.000244698,-0.00022851,-0.000211473,-0.000193681,-0.000175236,-0.00015625,-0.000136844,-0.000117154,-9.73273e-05,-7.75312e-05,-5.79531e-05,-3.8808e-05,-2.03453e-05,-2.85925e-06,1.32967e-05,2.76918e-05,3.97929e-05,4.89349e-05,5.42914e-05,5.48662e-05,4.95742e-05,3.75967e-05,1.94818e-05,-0
-0,-3.8802e-05,-5.37261e-05,-4.9502e-05,-3.09394e-05,-2.24765e-06,3.32052e-05,7.28509e-05,0.000114779,0.000157588,0.000200254,0.000242039,0.000282415,0.00032101,0.000357572,0.000391935,0.000424004,0.000453731,0.000481111,0.000506163,0.00052893,0.000549469,0.000567846,0.000584135,0.000598411,0.000610753,0.000621235,0.000629931,0.00063691,0.000642236,0.000645969,0.000648161,0.00064886,0.000648107,0.000645938,0.000642381,0.00063746,0.000631196,0.000623601,0.000614687,0.00060446,0.000592923,0.000580079,0.000565928,0.000550467,0.000533697,0.000515616,0.000496225,0.000475526,0.000453524,0.000430226,0.000405644,0.000379794,0.000352696,0.000324376,0.000294867,0.000264205,0.000232437,0.000199613,0.000165792,0.00013104,9.54322e-05,5.90488e-05,2.19791e-05,-1.568e-05,-5.38244e-05,-9.23428e-05,-0.000131117,-0.000170021,-0.000208924,-0.00024769,-0.000286175,-0.000324233,-0.000361714,-0.000398464,-0.000434327,-0.000469147,-0.000502765,-0.000535025,-0.000565772,-0.000594852,-0.000622118,-0.000647425,-0.000670634,-0.000691616,-0.000710245,-0.000726409,-0.000740003,-0.000750934,-0.00075912,-0.000764493,-0.000766997,-0.00076659,-0.000763247,-0.000756955,-0.000747719,-0.000735558,-0.000720509,-0.000702623,-0.00068197,-0.000658634,-0.000632718,-0.00060434,-0.000573635,-0.000540755,-0.00050587,-0.000469166,-0.000430849,-0.000391143,-0.000350295,-0.000308575,-0.000266279,-0.000223734,-0.000181307,-0.000139407,-9.84993e-05,-5.91198e-05,-2.18913e-05,1.24525e-05,4.3038e-05,6.88174e-05,8.85336e-05,0.000100698,0.000103612,9.55179e-05,7.5029e-05,4.21242e-05,-0
-0,-5.357e-05,-6.98455e-05,-5.74665e-05,-2.3701e-05,2.54277e-05,8.50789e-05,0.000151464,0.000221673,0.0002935,0.000365289,0.00043581,0.000504159,0.000569684,0.000631928,0.000690581,0.000745449,0.000796427,0.000843474,0.000886606,0.000925872,0.000961351,0.000993142,0.00102136,0.00104611,0.00106753,0.00108573,0.00110083,0.00111294,0.00112218,0.00112862,0.00113238,0.00113351,0.00113209,0.00112819,0.00112184,0.0011131,0.00110199,0.00108854,0.00107277,0.0010547,0.00103433,0.00101166,0.000986702,0.000959456,0.000929921,0.0008981,0.000863997,0.000827619,0.000788977,0.000748089,0.000704977,0.000659674,0.000612217,0.000562655,0.000511046,0.00045746,0.000401976,0.000344686,0.000285695,0.00022512,0.000163089,9.97466e-05,3.52469e-05,-3.02412e-05,-9.6537e-05,-0.000163447,-0.000230767,-0.00029828,-0.000365761,-0.000432972,-0.00049967,-0.000565603,-0.000630511,-0.000694133,-0.000756201,-0.000816445,-0.000874598,-0.000930391,-0.000983559,-0.00103384,-0.00108098,-0.00112474,-0.00116488,-0.00120117,-0.00123341,-0.00126141,-0.00128498,-0.00130396,-0.00131823,-0.00132765,-0.00133215,-0.00133165,-0.0013261,-0.00131549,-0.00129982,-0.00127914,-0.0012535,-0.00122299,-0.00118773,-0.00114788,-0.00110361,-0.00105512,-0.00100265,-0.000946459,-0.000886848,-0.00082414,-0.000758692,-0.000690894,-0.000621175,-0.000550004,-0.000477896,-0.000405419,-0.000333202,-0.000261948,-0.00019245,-0.00012561,-6.24627e-05,-4.20783e-06,4.77557e-05,9.17913e-05,0.000125991,0.000148164,0.000155876,0.000146607,0.000118115,6.90842e-05,-0
-0,-6.26945e-05,-7.52658e-05,-4.9675e-05,4.45025e-06,7.92931e-05,0.000168558,0.00026724,0.000371411,0.000478023,0.000584736,0.000689771,0.000791794,0.000889822,0.000983144,0.00107127,0.00115387,0.00123076,0.00130185,0.00136713,0.00142665,0.0014805,0.00152881,0.00157172,0.00160941,0.00164204,0.00166977,0.00169278,0.00171122,0.00172525,0.001735,0.00174061,0.00174218,0.00173983,0.00173363,0.00172367,0.00171,0.00169267,0.00167173,0.00164721,0.00161913,0.0015875,0.00155234,0.00151365,0.00147144,0.00142572,0.00137648,0.00132376,0.00126755,0.00120788,0.00114478,0.0010783,0.00100848,0.000935396,0.000859114,0.000779732,0.00069736,0.000612123,0.000524166,0.00043365,0.000340756,0.000245685,0.000148656,4.99078e-05,-5.03025e-05,-0.000151698,-0.000253985,-0.00035685,-0.000459967,-0.00056299,-0.000665562,-0.000767314,-0.000867863,-0.00096682,-0.00106379,-0.00115836,-0.00125014,-0.00133871,-0.00142368,-0.00150464,-0.0015812,-0.00165299,-0.00171963,-0.00178077,-0.00183608,-0.00188523,-0.00192795,-0.00196396,-0.00199303,-0.00201495,-0.00202955,-0.00203668,-0.00203625,-0.00202819,-0.00201248,-0.00198912,-0.00195817,-0.00191974,-0.00187395,-0.00182099,-0.00176109,-0.00169452,-0.00162158,-0.00154265,-0.00145811,-0.00136843,-0.00127409,-0.00117565,-0.00107369,-0.000968877,-0.00086192,-0.000753603,-0.000644785,-0.000536417,-0.000429555,-0.000325377,-0.000225214,-0.000130573,-4.31756e-05,3.50061e-05,0.000101708,0.000154344,0.000189998,0.000205457,0.000197332,0.000162278,9.73056e-05,-0
-0,-6.39586e-05,-6.63327e-05,-2.16584e-05,5.83814e-05,0.000164314,0.000288469,0.000424677,0.000568017,0.000714605,0.0008614,0.00100605,0.00114677,0.0012822,0.00141134,0.00153351,0.00164821,0.00175514,0.00185416,0.0019452,0.00202832,0.00210361,0.00217122,0.00223134,0.00228416,0.00232991,0.0023688,0.00240105,0.00242686,0.00244645,0.00245999,0.00246767,0.00246962,0.002466,0.00245691,0.00244247,0.00242276,0.00239784,0.00236779,0.00233264,0.00229242,0.00224717,0.00219689,0.00214162,0.00208136,0.00201611,0.00194591,0.00187077,0.00179072,0.0017058,0.00161605,0.00152154,0.00142235,0.00131858,0.00121033,0.00109776,0.000981009,0.000860269,0.000735745,0.000607669,0.000476299,0.000341919,0.000204841,6.54023e-05,-7.6034e-05,-0.000219078,-0.000363317,-0.000508311,-0.000653602,-0.000798707,-0.000943126,-0.00108634,-0.00122783,-0.00136703,-0.0015034,-0.00163638,-0.0017654,-0.0018899,-0.00200932,-0.00212311,-0.00223072,-0.00233162,-0.00242531,-0.00251129,-0.0025891,-0.00265831,-0.0027185,-0.00276932,-0.00281044,-0.00284157,-0.00286247,-0.00287295,-0.00287287,-0.00286214,-0.00284073,-0.00280865,-0.00276598,-0.00271287,-0.0026495,-0.00257614,-0.0024931,-0.00240077,-0.00229957,-0.00219002,-0.00207268,-0.00194818,-0.00181721,-0.00168056,-0.00153905,-0.00139359,-0.0012452,-0.00109496,-0.000944076,-0.000793859,-0.000645765,-0.000501409,-0.000362592,-0.000231335,-0.000109918,-9.15494e-07,9.27612e-05,0.000167833,0.000220636,0.000247142,0.000243005,0.000203652,0.000124336,-0
-0,-5.59123e-05,-4.04763e-05,2.98826e-05,0.000141804,0.000284371,0.000448669,0.000627449,0.000814855,0.0010062,0.00119776,0.00138661,0.00157048,0.00174766,0.00191683,0.00207707,0.00222772,0.00236835,0.00249873,0.00261876,0.00272845,0.00282791,0.0029173,0.00299683,0.00306674,0.0031273,0.00317876,0.00322141,0.00325551,0.00328129,0.00329901,0.00330886,0.00331106,0.00330578,0.00329317,0.00327336,0.00324648,0.0032126,0.00317181,0.00312417,0.00306974,0.00300853,0.0029406,0.00286595,0.00278462,0.00269664,0.00260202,0.0025008,0.00239303,0.00227877,0.00215809,0.00203108,0.00189786,0.00175856,0.00161334,0.00146239,0.00130593,0.0011442,0.000977497,0.000806123,0.000630428,0.000450795,0.000267641,8.1415e-05,-0.000107396,-0.000298275,-0.00049067,-0.000684002,-0.000877658,-0.001071,-0.00126337,-0.00145409,-0.00164245,-0.00182772,-0.0020092,-0.00218612,-0.00235776,-0.00252338,-0.00268223,-0.00283358,-0.00297673,-0.00311098,-0.00323566,-0.00335013,-0.00345377,-0.00354602,-0.00362635,-0.00369428,-0.00374938,-0.00379127,-0.00381965,-0.00383426,-0.00383492,-0.00382151,-0.00379399,-0.00375239,-0.00369681,-0.00362744,-0.00354453,-0.00344843,-0.00333957,-0.00321843,-0.00308561,-0.00294178,-0.00278768,-0.00262416,-0.00245213,-0.00227262,-0.00208673,-0.00189568,-0.00170079,-0.0015035,-0.00130539,-0.00110816,-0.000913727,-0.00072416,-0.000541769,-0.000369117,-0.000209063,-6.48027e-05,6.00952e-05,0.000161648,0.000235434,0.000276579,0.000279748,0.000239124,0.000148303,-0
-0,-3.76364e-05,4.05302e-06,0.000107315,0.000257484,0.00044244,0.000652184,0.0008785,0.00111468,0.00135528,0.00159593,0.00183316,0.00206423,0.00228704,0.00249999,0.00270189,0.0028919,0.00306947,0.00323425,0.0033861,0.00352499,0.00365102,0.00376436,0.00386526,0.00395397,0.00403081,0.00409609,0.00415014,0.00419326,0.00422575,0.0042479,0.00425998,0.00426221,0.00425483,0.00423801,0.00421192,0.00417671,0.0041325,0.00407937,0.00401742,0.0039467,0.00386727,0.00377917,0.00368245,0.00357713,0.00346327,0.00334089,0.00321006,0.00307083,0.00292331,0.00276758,0.00260377,0.00243204,0.00225257,0.00206557,0.00187129,0.00167003,0.00146209,0.00124785,0.00102772,0.000802144,0.000571611,0.000336658,9.78657e-05,-0.000144147,-0.000388716,-0.000635141,-0.00088268,-0.00113056,-0.00137796,-0.00162405,-0.00186796,-0.0021088,-0.00234566,-0.00257762,-0.00280374,-0.00302309,-0.00323472,-0.0034377,-0.00363113,-0.00381409,-0.00398572,-0.00414515,-0.0042916,-0.00442428,-0.00454248,-0.00464553,-0.00473282,-0.00480383,-0.00485807,-0.00489515,-0.00491476,-0.00491667,-0.00490072,-0.00486688,-0.00481516,-0.00474572,-0.00465879,-0.00455469,-0.00443386,-0.00429684,-0.00414427,-0.00397689,-0.00379555,-0.0036012,-0.00339492,-0.00317787,-0.00295135,-0.00271676,-0.00247566,-0.0022297,-0.00198071,-0.00173067,-0.00148173,-0.00123625,-0.000996804,-0.000766234,-0.000547664,-0.000344545,-0.0001607,-3.64185e-07,0.000131775,0.000230533,0.00029019,0.000304433,0.000266264,0.000167814,-0
-0,-8.57397e-06,6.84002e-05,0.000212278,0.00040742,0.000640743,0.000901336,0.00118014,0.00146969,0.00176387,0.00205769,0.00234718,0.00262915,0.00290113,0.00316122,0.00340798,0.0036404,0.00385777,0.00405965,0.00424582,0.00441622,0.00457093,0.00471014,0.00483408,0.00494308,0.00503748,0.00511763,0.00518389,0.00523665,0.00527623,0.00530298,0.00531721,0.0053192,0.00530921,0.00528746,0.00525415,0.00520945,0.00515351,0.00508645,0.00500838,0.00491936,0.00481948,0.00470879,0.00458735,0.00445521,0.00431242,0.00415906,0.00399519,0.00382091,0.00363633,0.00344159,0.00323686,0.00302233,0.00279824,0.00256487,0.00232254,0.0020716,0.00181246,0.00154559,0.0012715,0.000990746,0.000703941,0.000411753,0.000114901,-0.000185846,-0.000489666,-0.000795692,-0.00110301,-0.00141066,-0.00171764,-0.00202292,-0.00232544,-0.00262409,-0.00291776,-0.00320531,-0.00348561,-0.0037575,-0.00401982,-0.00427145,-0.00451124,-0.00473811,-0.00495098,-0.00514881,-0.00533061,-0.00549544,-0.00564242,-0.00577074,-0.00587965,-0.0059685,-0.00603671,-0.0060838,-0.00610938,-0.00611316,-0.00609498,-0.00605477,-0.00599258,-0.00590857,-0.00580303,-0.00567637,-0.00552913,-0.00536197,-0.00517567,-0.00497115,-0.00474946,-0.00451177,-0.0042594,-0.00399379,-0.00371653,-0.00342936,-0.00313416,-0.00283298,-0.00252805,-0.00222176,-0.00191675,-0.00161584,-0.00132214,-0.00103903,-0.0007702,-0.000519715,-0.000292026,-9.20319e-05,7.48766e-05,0.000202763,0.000285082,0.000314591,0.00028322,0.000181855,-0
-0,3.15849e-05,0.000153272,0.000345855,0.000593001,0.000880883,0.00119785,0.00153414,0.00188162,0.00223356,0.00258447,0.00292987,0.00326619,0.00359059,0.00390088,0.0041954,0.00447295,0.00473267,0.00497402,0.00519672,0.00540065,0.00558589,0.00575262,0.00590109,0.00603165,0.00614467,0.00624056,0.00631972,0.00638258,0.00642952,0.00646093,0.00647717,0.00647856,0.00646539,0.00643794,0.00639644,0.00634108,0.00627204,0.00618947,0.00609348,0.00598419,0.00586167,0.00572602,0.0055773,0.00541558,0.00524094,0.00505347,0.00485327,0.00464046,0.00441519,0.00417763,0.00392801,0.00366657,0.00339361,0.00310947,0.00281454,0.00250928,0.00219418,0.00186982,0.0015368,0.00119582,0.00084763,0.000493027,0.000132886,-0.000231861,-0.000600223,-0.000971153,-0.00134355,-0.00171625,-0.00208807,-0.00245775,-0.00282402,-0.00318556,-0.00354103,-0.00388908,-0.00422832,-0.00455738,-0.00487488,-0.00517947,-0.00546979,-0.00574452,-0.00600238,-0.00624213,-0.00646258,-0.00666262,-0.00684118,-0.0069973,-0.00713009,-0.00723876,-0.00732263,-0.0073811,-0.00741373,-0.00742017,-0.00740022,-0.00735378,-0.00728094,-0.00718187,-0.00705694,-0.00690662,-0.00673157,-0.00653258,-0.00631058,-0.00606668,-0.00580214,-0.00551837,-0.00521695,-0.0048996,-0.00456824,-0.00422494,-0.00387196,-0.00351175,-0.00314694,-0.00278041,-0.00241523,-0.00205477,-0.00170265,-0.0013628,-0.00103951,-0.000737437,-0.000461668,-0.000217761,-1.17982e-05,0.000149551,0.000258956,0.000308314,0.00028861,0.000189698,-0
-0,8.29823e-05,0.000259059,0.000508711,0.000815138,0.00116396,0.00154295,0.00194177,0.00235173,0.00276559,0.00317738,0.0035822,0.0039761,0.00435594,0.00471926,0.00506417,0.0053893,0.00569366,0.0059766,0.00623777,0.00647702,0.00669439,0.00689007,0.00706432,0.00721751,0.00735006,0.0074624,0.00755499,0.00762829,0.00768274,0.00771877,0.00773678,0.00773715,0.00772021,0.00768625,0.00763556,0.00756835,0.00748484,0.00738518,0.00726954,0.00713803,0.00699076,0.00682783,0.00664934,0.00645538,0.00624604,0.00602145,0.00578174,0.00552706,0.0052576,0.00497358,0.00467526,0.00436297,0.00403705,0.00369793,0.00334609,0.00298206,0.00260645,0.00221994,0.00182326,0.00141725,0.00100278,0.000580819,0.0001524,-0.000281373,-0.000719327,-0.00116022,-0.00160276,-0.00204557,-0.00248725,-0.00292632,-0.00336127,-0.00379057,-0.00421263,-0.00462586,-0.00502863,-0.00541934,-0.00579636,-0.00615809,-0.00650295,-0.0068294,-0.00713591,-0.00742105,-0.00768341,-0.00792168,-0.00813463,-0.0083211,-0.00848007,-0.00861059,-0.00871187,-0.00878322,-0.00882409,-0.0088341,-0.00881299,-0.00876066,-0.00867719,-0.0085628,-0.00841791,-0.00824309,-0.00803909,-0.00780685,-0.00754747,-0.00726225,-0.00695266,-0.00662037,-0.00626724,-0.00589529,-0.00550676,-0.0051041,-0.00468995,-0.00426716,-0.00383882,-0.00340827,-0.00297908,-0.00255512,-0.00214056,-0.0017399,-0.00135801,-0.00100016,-0.000672063,-0.000379925,-0.000130503,6.88324e-05,0.00021001,0.000284151,0.000281422,0.000190836,-0
-0,0.000145646,0.000385926,0.000701195,0.00107437,0.00149068,0.00193747,0.00240394,0.00288095,0.00336084,0.00383723,0.00430485,0.00475945,0.00519758,0.00561655,0.00601428,0.00638923,0.00674028,0.0070667,0.00736807,0.00764419,0.00789509,0.00812094,0.00832205,0.00849878,0.00865158,0.00878094,0.00888734,0.00897131,0.00903331,0.00907384,0.00909333,0.00909219,0.00907081,0.00902952,0.00896862,0.00888838,0.00878901,0.00867073,0.00853371,0.00837808,0.00820399,0.00801155,0.00780087,0.00757209,0.00732533,0.00706072,0.00677844,0.00647867,0.00616166,0.00582767,0.00547702,0.00511009,0.00472731,0.00432919,0.00391628,0.00348923,0.00304876,0.00259566,0.0021308,0.00165515,0.00116974,0.000675696,0.000174228,-0.000333378,-0.000845756,-0.00136147,-0.00187899,-0.00239676,-0.00291311,-0.00342636,-0.00393476,-0.0044365,-0.00492977,-0.00541272,-0.00588347,-0.00634016,-0.00678091,-0.00720388,-0.00760723,-0.00798916,-0.00834795,-0.0086819,-0.00898941,-0.00926895,-0.00951909,-0.00973851,-0.009926,-0.0100805,-0.010201,-0.0102869,-0.0103373,-0.0103519,-0.0103305,-0.0102727,-0.0101789,-0.0100491,-0.00988391,-0.00968396,-0.00945012,-0.00918347,-0.00888528,-0.00855705,-0.00820049,-0.00781752,-0.00741027,-0.00698111,-0.00653263,-0.00606761,-0.00558913,-0.00510045,-0.00460512,-0.00410696,-0.00361004,-0.00311877,-0.00263787,-0.0021724,-0.00172781,-0.00130999,-0.000925273,-0.000580496,-0.00028307,-4.1035e-05,0.000136854,0.00024102,0.000260931,0.000184924,-0
-0,0.000219525,0.000533879,0.000923425,0.00137094,0.00186141,0.00238187,0.00292118,0.00346986,0.00401989,0.00456456,0.00509831,0.00561659,0.00611574,0.00659284,0.00704565,0.00747247,0.00787209,0.00824369,0.00858677,0.00890114,0.00918678,0.00944387,0.00967272,0.00987373,0.0100474,0.0101942,0.0103147,0.0104094,0.0104789,0.0105238,0.0105444,0.0105412,0.0105147,0.0104652,0.010393,0.0102986,0.010182,0.0100436,0.00988348,0.00970189,0.00949896,0.00927483,0.00902965,0.00876357,0.00847673,0.00816931,0.00784152,0.00749359,0.0071258,0.00673848,0.00633201,0.00590683,0.00546346,0.00500247,0.00452454,0.00403041,0.00352092,0.00299698,0.00245961,0.00190991,0.00134909,0.000778444,0.000199356,-0.000386692,-0.000978133,-0.00157331,-0.0021705,-0.00276787,-0.00336356,-0.00395561,-0.00454203,-0.00512077,-0.00568973,-0.00624682,-0.00678989,-0.0073168,-0.00782542,-0.00831363,-0.00877935,-0.00922053,-0.00963517,-0.0100214,-0.0103773,-0.0107011,-0.0109913,-0.0112463,-0.0114648,-0.0116454,-0.0117872,-0.0118892,-0.0119507,-0.0119712,-0.0119503,-0.0118879,-0.011784,-0.011639,-0.0114534,-0.0112279,-0.0109636,-0.0106616,-0.0103234,-0.0099507,-0.00954546,-0.00910987,-0.00864636,-0.00815761,-0.00764656,-0.00711642,-0.00657062,-0.00601291,-0.0054473,-0.00487807,-0.00430984,-0.00374753,-0.00319642,-0.00266216,-0.00215077,-0.00166876,-0.00122305,-0.000821111,-0.000470987,-0.000181346,3.84247e-05,0.000178127,0.000226633,0.000171738,-0
-0,0.000304517,0.000702808,0.00117535,0.00170488,0.00227628,0.00287637,0.00349378,0.00411877,0.00474306,0.00535968,0.00596282,0.00654772,0.00711051,0.0076481,0.0081581,0.00863871,0.00908862,0.00950693,0.00989311,0.0102469,0.0105684,0.0108576,0.0111149,0.0113408,0.0115358,0.0117004,0.0118351,0.0119407,0.0120176,0.0120664,0.0120877,0.0120819,0.0120495,0.0119909,0.0119065,0.0117966,0.0116615,0.0115015,0.0113167,0.0111073,0.0108736,0.0106157,0.0103337,0.010028,0.0096985,0.0093456,0.00896948,0.00857044,0.00814879,0.00770492,0.00723929,0.0067524,0.00624486,0.00571733,0.00517059,0.0046055,0.004023,0.00342415,0.00281012,0.00218217,0.00154166,0.000890063,0.000228966,-0.000439956,-0.00111492,-0.00179406,-0.0024754,-0.00315689,-0.00383641,-0.00451175,-0.00518066,-0.00584081,-0.00648985,-0.00712539,-0.00774502,-0.00834633,-0.00892689,-0.00948433,-0.0100163,-0.0105204,-0.0109945,-0.0114364,-0.011844,-0.0122153,-0.0125485,-0.0128418,-0.0130937,-0.0133029,-0.013468,-0.0135881,-0.0136622,-0.0136899,-0.0136707,-0.0136044,-0.0134912,-0.0133313,-0.0131253,-0.0128741,-0.0125788,-0.0122407,-0.0118616,-0.0114432,-0.0109878,-0.0104978,-0.00997607,-0.00942554,-0.00884952,-0.00825161,-0.00763569,-0.00700593,-0.00636683,-0.00572318,-0.0050801,-0.00444307,-0.00381793,-0.00321088,-0.00262856,-0.00207804,-0.00156688,-0.00110314,-0.000695462,-0.00035312,-8.6081e-05,9.49008e-05,0.000178188,0.000151142,-0
-0,0.000400484,0.000892524,0.00145678,0.00207606,0.0027352,0.00342095,0.00412178,0.00482777,0.00553045,0.00622268,0.00689845,0.00755284,0.00818182,0.00878217,0.0093514,0.00988759,0.0103894,0.0108558,0.0112863,0.0116806,0.0120388,0.0123609,0.0126474,0.0128987,0.0131153,0.0132979,0.013447,0.0135633,0.0136473,0.0136998,0.0137213,0.0137123,0.0136733,0.0136048,0.0135071,0.0133806,0.0132256,0.0130424,0.0128313,0.0125924,0.0123261,0.0120323,0.0117115,0.0113637,0.0109892,0.0105883,0.0101611,0.00970814,0.00922968,0.0087262,0.00819822,0.00764632,0.00707119,0.00647361,0.00585443,0.00521465,0.00455534,0.0038777,0.00318304,0.00247278,0.00174847,0.00101176,0.00026443,-0.000491634,-0.00125443,-0.00202186,-0.00279172,-0.0035617,-0.00432942,-0.00509242,-0.00584817,-0.00659407,-0.00732748,-0.00804572,-0.00874611,-0.00942594,-0.0100825,-0.0107131,-0.0113152,-0.011886,-0.0124232,-0.0129243,-0.0133869,-0.0138088,-0.014188,-0.0145225,-0.0148105,-0.0150506,-0.0152413,-0.0153814,-0.01547,-0.0155065,-0.0154902,-0.0154212,-0.0152993,-0.0151251,-0.014899,-0.0146221,-0.0142956,-0.0139209,-0.0134999,-0.0130348,-0.0125279,-0.0119821,-0.0114003,-0.0107859,-0.0101426,-0.00947445,-0.00878569,-0.00808097,-0.00736526,-0.00664388,-0.00592246,-0.00520703,-0.00450399,-0.00382013,-0.00316267,-0.00253927,-0.00195807,-0.00142773,-0.000957487,-0.000557163,-0.000237272,-9.06636e-06,0.000115376,0.000123064,-0
-0,0.000507267,0.00110278,0.00176745,0.00248421,0.00323797,0.00401543,0.00480502,0.00559673,0.00638196,0.00715345,0.00790509,0.0086318,0.00932947,0.0099948,0.0106252,0.0112187,0.0117738,0.0122897,0.0127656,0.0132015,0.0135971,0.0139528,0.014269,0.014546,0.0147846,0.0149852,0.0151487,0.0152756,0.0153666,0.0154224,0.0154435,0.0154307,0.0153843,0.0153049,0.0151928,0.0150486,0.0148725,0.0146648,0.0144258,0.0141557,0.0138549,0.0135234,0.0131616,0.0127696,0.0123477,0.0118963,0.0114155,0.0109059,0.0103678,0.00980181,0.00920843,0.00858837,0.0079424,0.00727139,0.00657633,0.00585832,0.00511856,0.00435839,0.00357929,0.00278285,0.00197078,0.00114494,0.000307307,-0.000540021,-0.00139482,-0.00225474,-0.00311734,-0.00398007,-0.00484027,-0.0056952,-0.00654206,-0.00737796,-0.00819997,-0.00900513,-0.00979044,-0.0105529,-0.0112895,-0.0119973,-0.0126733,-0.0133147,-0.0139186,-0.0144824,-0.0150034,-0.0154793,-0.0159076,-0.0162862,-0.0166132,-0.0168868,-0.0171054,-0.0172677,-0.0173728,-0.0174197,-0.0174079,-0.0173373,-0.0172078,-0.0170199,-0.0167742,-0.0164718,-0.0161139,-0.0157023,-0.015239,-0.0147262,-0.0141667,-0.0135635,-0.01292,-0.0122399,-0.0115272,-0.0107864,-0.0100221,-0.00923959,-0.00844421,-0.00764179,-0.00683854,-0.00604101,-0.00525618,-0.00449141,-0.00375451,-0.00305372,-0.00239777,-0.0017959,-0.00125789,-0.000794127,-0.000415614,-0.000134063,3.8061e-05,8.74717e-05,-0
-0,0.00062469,0.0013333,0.00210701,0.00292898,0.00378421,0.00465948,0.00554321,0.00642537,0.00729733,0.00815175,0.00898245,0.00978431,0.0105531,0.0112856,0.011979,0.0126314,0.0132414,0.0138078,0.0143303,0.0148085,0.0152424,0.0156323,0.0159785,0.0162816,0.0165422,0.0167611,0.0169388,0.0170761,0.0171738,0.0172324,0.0172528,0.0172354,0.0171808,0.0170896,0.0169623,0.0167991,0.0166006,0.016367,0.0160987,0.0157958,0.0154587,0.0150876,0.0146828,0.0142446,0.0137731,0.0132688,0.012732,0.0121632,0.0115628,0.0109315,0.0102698,0.0095786,0.00885869,0.00811106,0.00733681,0.00653716,0.00571347,0.00486722,0.00400003,0.00311367,0.00221005,0.00129121,0.000359338,-0.000583242,-0.00153408,-0.00249058,-0.00345005,-0.00440968,-0.00536653,-0.00631759,-0.00725976,-0.00818987,-0.00910468,-0.0100009,-0.0108753,-0.0117245,-0.0125452,-0.0133342,-0.0140881,-0.0148038,-0.0154783,-0.0161084,-0.0166915,-0.0172246,-0.0177053,-0.0181311,-0.0184999,-0.0188097,-0.0190589,-0.0192458,-0.0193694,-0.0194286,-0.019423,-0.0193522,-0.0192163,-0.0190157,-0.0187511,-0.0184235,-0.0180344,-0.0175857,-0.0170795,-0.0165183,-0.0159052,-0.0152434,-0.0145367,-0.013789,-0.0130048,-0.012189,-0.0113467,-0.0104835,-0.00960534,-0.0087186,-0.00782998,-0.00694661,-0.00607602,-0.00522616,-0.0044054,-0.00362259,-0.00288703,-0.00220852,-0.0015974,-0.00106455,-0.000621475,-0.0002803,-5.38405e-05,4.43609e-05,-0
-0,0.000752569,0.00158376,0.00247509,0.00340994,0.00437349,0.00535265,0.00633591,0.00731327,0.00827613,0.00921715,0.0101301,0.0110099,0.0118524,0.0126541,0.0134124,0.0141253,0.0147913,0.0154096,0.0159795,0.0165009,0.0169737,0.0173982,0.0177749,0.0181043,0.0183872,0.0186241,0.018816,0.0189635,0.0190675,0.0191286,0.0191475,0.019125,0.0190615,0.0189577,0.018814,0.0186308,0.0184087,0.0181479,0.0178487,0.0175115,0.0171365,0.0167241,0.0162744,0.0157879,0.0152647,0.0147054,0.0141102,0.0134798,0.0128146,0.0121152,0.0113825,0.0106173,0.0098205,0.0089932,0.00813662,0.0072521,0.00634115,0.00540539,0.00444661,0.00346676,0.00246792,0.00145235,0.000422442,-0.000619256,-0.00167005,-0.00272712,-0.00378749,-0.00484809,-0.0059057,-0.00695702,-0.00799867,-0.00902716,-0.0100389,-0.0110305,-0.0119981,-0.0129381,-0.0138471,-0.0147212,-0.0155571,-0.0163511,-0.0170999,-0.0178002,-0.0184488,-0.0190428,-0.0195793,-0.0200556,-0.0204693,-0.0208183,-0.0211006,-0.0213147,-0.0214591,-0.0215328,-0.0215352,-0.0214659,-0.0213249,-0.0211127,-0.0208299,-0.0204777,-0.0200577,-0.0195718,-0.0190225,-0.0184124,-0.0177448,-0.0170233,-0.0162518,-0.0154348,-0.0145771,-0.013684,-0.0127611,-0.0118144,-0.0108505,-0.00987606,-0.0088985,-0.00792547,-0.00696505,-0.00602579,-0.00511665,-0.00424704,-0.00342684,-0.00266642,-0.00197665,-0.00136891,-0.000855164,-0.00044794,-0.00016038,-6.25949e-06,-0
-0,0.000890716,0.00185385,0.00287125,0.0039266,0.00500529,0.00609441,0.00718258,0.00825991,0.00931785,0.0103491,0.0113476,0.0123082,0.0132266,0.0140996,0.0149246,0.0156996,0.0164231,0.0170942,0.0177125,0.0182777,0.01879,0.0192496,0.0196571,0.020013,0.0203182,0.0205733,0.0207792,0.0209366,0.0210465,0.0211096,0.0211266,0.0210982,0.021025,0.0209077,0.0207467,0.0205425,0.0202956,0.0200063,0.0196749,0.0193019,0.0188875,0.018432,0.0179357,0.017399,0.0168222,0.0162057,0.01555,0.0148556,0.0141231,0.0133533,0.012547,0.011705,0.0108285,0.00991865,0.00897674,0.00800427,0.00700287,0.00597433,0.00492061,0.00384382,0.00274624,0.00163034,0.00049871,-0.000645861,-0.00180044,-0.00296196,-0.00412718,-0.00529274,-0.00645516,-0.00761084,-0.00875608,-0.0098871,-0.011,-0.012091,-0.013156,-0.0141911,-0.0151924,-0.0161559,-0.0170778,-0.0179541,-0.0187812,-0.0195556,-0.0202736,-0.0209321,-0.0215279,-0.0220581,-0.02252,-0.0229112,-0.0232297,-0.0234736,-0.0236414,-0.0237319,-0.0237444,-0.0236784,-0.0235339,-0.0233113,-0.0230113,-0.0226353,-0.0221848,-0.021662,-0.0210694,-0.0204099,-0.019687,-0.0189047,-0.0180671,-0.0171792,-0.016246,-0.0152734,-0.0142673,-0.0132343,-0.0121815,-0.011116,-0.0100459,-0.00897925,-0.00792484,-0.00689175,-0.00588954,-0.0049282,-0.00401818,-0.0031704,-0.00239626,-0.00170765,-0.00111696,-0.000637126,-0.000281598,-6.43772e-05,-0
-0,0.00103894,0.00214321,0.00329505,0.00447843,0.00567903,0.00688415,0.0080826,0.00926464,0.0104218,0.0115471,0.0126342,0.0136783,0.0146752,0.0156216,0.016515,0.0173535,0.0181358,0.0188609,0.0195284,0.0201382,0.0206905,0.0211856,0.0216241,0.0220067,0.0223341,0.0226073,0.022827,0.0229942,0.0231097,0.0231742,0.0231887,0.0231538,0.0230702,0.0229385,0.0227593,0.0225331,0.0222603,0.0219413,0.0215765,0.0211663,0.0207109,0.0202108,0.0196662,0.0190775,0.0184452,0.0177695,0.0170512,0.0162907,0.0154888,0.0146461,0.0137637,0.0128425,0.0118836,0.0108884,0.00985836,0.00879499,0.00770012,0.00657567,0.00542379,0.00424675,0.00304704,0.00182731,0.0005904,-0.000660691,-0.00192279,-0.00319255,-0.00446649,-0.00574096,-0.00701219,-0.00827628,-0.00952922,-0.0107669,-0.0119852,-0.0131798,-0.0143465,-0.0154809,-0.0165787,-0.0176358,-0.0186478,-0.0196106,-0.0205202,-0.0213725,-0.0221639,-0.0228908,-0.0235496,-0.0241373,-0.0246509,-0.0250877,-0.0254455,-0.0257221,-0.025916,-0.0260258,-0.0260506,-0.0259899,-0.0258437,-0.0256122,-0.0252964,-0.0248974,-0.0244171,-0.0238576,-0.0232217,-0.0225125,-0.0217337,-0.0208896,-0.0199847,-0.0190242,-0.0180136,-0.0169592,-0.0158674,-0.0147453,-0.0136003,-0.0124404,-0.0112739,-0.0101097,-0.00895701,-0.00782552,-0.0067254,-0.00566722,-0.00466201,-0.00372124,-0.00285685,-0.0020812,-0.00140715,-0.000848005,-0.000417541,-0.000129985,-0