-0,-0.000914485,-0.00345419,-0.00656807,-0.00942017,-0.0114703,-0.0123951,-0.0120138,-0.0102372,-0.0070361,-0.00242052,0.00357313,0.0108911,0.019468,0.0292317,0.0401055,0.052011,0.0648694,0.0786026,0.0931342,0.10839,0.124298,0.14079,0.157799,0.175263,0.193122,0.211318,0.229797,0.248507,0.267398,0.286423,0.305535,0.324691,0.343848,0.362965,0.382002,0.400918,0.419675,0.438234,0.456557,0.474607,0.492344,0.509732,0.526732,0.543305,0.559413,0.575019,0.590081,0.604563,0.618425,0.631627,0.644131,0.655899,0.666891,0.677071,0.686401,0.694846,0.702369,0.708939,0.714522,0.719088,0.722609,0.725059,0.726414,0.726654,0.725761,0.723719,0.720519,0.716153,0.710616,0.703911,0.696041,0.687016,0.676849,0.665561,0.653173,0.639714,0.625217,0.609721,0.593269,0.575907,0.557689,0.538671,0.518916,0.49849,0.477461,0.455904,0.433895,0.411516,0.388849,0.365979,0.342994,0.319982,0.297035,0.274243,0.251696,0.229485,0.207701,0.186432,0.165764,0.145782,0.126569,0.108201,0.0907543,0.0742988,0.0589,0.0446184,0.0315084,0.0196182,0.00898919,-0.000344919,-0.00835861,-0.0150355,-0.0203692,-0.0243649,-0.0270408,-0.02843,-0.0285837,-0.0275746,-0.0255023,-0.0225006,-0.0187476,-0.0144808,-0.0100171,-0.00577905,-0.00231485,-0.000257456,-0
-0.000914485,-0.00162674,-0.00233791,-0.00314061,-0.00373302,-0.00378858,-0.00305117,-0.00134423,0.00144234,0.00536783,0.010454,0.0166952,0.0240663,0.0325276,0.0420301,0.0525176,0.06393,0.0762044,0.0892767,0.103083,0.117559,0.132643,0.148273,0.164391,0.180939,0.197862,0.215108,0.232624,0.250361,0.268272,0.286312,0.304437,0.322602,0.340767,0.358892,0.376936,0.394862,0.412629,0.430202,0.447543,0.464613,0.481377,0.497798,0.513839,0.529462,0.544632,0.559312,0.573464,0.587052,0.60004,0.612392,0.624071,0.635041,0.645268,0.654718,0.663356,0.671151,0.67807,0.684085,0.689166,0.693287,0.696423,0.698552,0.699654,0.699711,0.698708,0.696635,0.693482,0.689244,0.68392,0.677512,0.670027,0.661474,0.651868,0.641228,0.629575,0.616938,0.603348,0.58884,0.573455,0.557237,0.540235,0.522501,0.504093,0.48507,0.465496,0.445438,0.424966,0.404153,0.383075,0.361808,0.340432,0.319026,0.297673,0.276453,0.255448,0.234741,0.214411,0.194539,0.175202,0.156475,0.138431,0.121141,0.104671,0.0890829,0.0744346,0.0607789,0.0481632,0.0366286,0.0262097,0.0169337,0.00881991,0.00187851,-0.00389006,-0.00849651,-0.0119642,-0.0143307,-0.0156508,-0.0159985,-0.0154713,-0.0141945,-0.0123261,-0.0100618,-0.0076362,-0.00531265,-0.00333697,-0.0017976,-0.000257456
-0.00345729,-0.00234042,-0.00113076,7.55882e-05,0.00141596,0.00309854,0.00532148,0.00824393,0.0119813,0.0166096,0.0221723,0.0286869,0.0361508,0.0445462,0.0538439,0.0640059,0.0749885,0.0867432,0.0992192,0.112364,0.126123,0.140444,0.155272,0.170556,0.186244,0.202285,0.21863,0.235233,0.252046,0.269024,0.286124,0.303303,0.32052,0.337735,0.354908,0.372,0.388973,0.405791,0.422416,0.438812,0.454942,0.470771,0.486264,0.501384,0.516097,0.530367,0.544161,0.557442,0.570176,0.582331,0.593871,0.604763,0.614975,0.624476,0.633232,0.641215,0.648396,0.654745,0.660238,0.664848,0.668553,0.671331,0.673164,0.674034,0.673927,0.672832,0.670738,0.667641,0.663537,0.658427,0.652314,0.645206,0.637113,0.628051,0.618037,0.607093,0.595246,0.582526,0.568965,0.554602,0.539478,0.523637,0.507128,0.490002,0.472315,0.454125,0.435491,0.416478,0.397152,0.377579,0.357831,0.337976,0.318089,0.298241,0.278505,0.258955,0.239664,0.220704,0.202145,0.184057,0.166506,0.149558,0.133275,0.117715,0.102933,0.0889787,0.075899,0.063734,0.0525185,0.0422811,0.033043,0.0248181,0.0176114,0.0114187,0.00622508,0.00200388,-0.00128493,-0.00369641,-0.00530257,-0.00619437,-0.00648354,-0.00630326,-0.00580602,-0.00515476,-0.00449933,-0.00392339,-0.00333878,-0.00231019
-0.00658568,-0.0031475,7.91349e-05,0.00315719,0.00622219,0.00944493,0.0129945,0.0170173,0.0216299,0.0269181,0.0329401,0.0397307,0.0473056,0.0556644,0.064795,0.0746752,0.0852755,0.096561,0.108492,0.121028,0.134123,0.147732,0.161809,0.176309,0.191185,0.206391,0.221883,0.237616,0.253548,0.269634,0.285835,0.302109,0.318417,0.334719,0.350977,0.367154,0.383213,0.399117,0.41483,0.430318,0.445544,0.460475,0.475076,0.489313,0.503152,0.516561,0.529505,0.541953,0.553872,0.56523,0.575996,0.58614,0.595632,0.604442,0.612543,0.619907,0.626508,0.632322,0.637325,0.641495,0.644814,0.647262,0.648823,0.649485,0.649234,0.648063,0.645963,0.642933,0.63897,0.634077,0.628258,0.621523,0.613882,0.60535,0.595944,0.585688,0.574604,0.562722,0.550073,0.536691,0.522614,0.507884,0.492546,0.476644,0.460231,0.443358,0.42608,0.408453,0.390538,0.372395,0.354085,0.335672,0.317221,0.298797,0.280463,0.262287,0.244331,0.22666,0.209336,0.192422,0.175976,0.160054,0.144713,0.130002,0.115969,0.102659,0.0901106,0.078358,0.0674304,0.0573507,0.0481351,0.0397927,0.0323244,0.0257221,0.0199681,0.0150337,0.0108782,0.00744787,0.00467491,0.0024765,0.000755151,-0.000599633,-0.00170611,-0.00267899,-0.00360775,-0.0045194,-0.00532456,-0.005764
-0.0094695,-0.00374393,0.00143709,0.00625169,0.0108709,0.0154653,0.0201954,0.0252029,0.0306055,0.0364957,0.0429427,0.0499942,0.05768,0.0660144,0.0749993,0.084626,0.0948779,0.105732,0.117158,0.129126,0.141599,0.15454,0.16791,0.181668,0.195774,0.210186,0.224865,0.239769,0.254857,0.27009,0.285429,0.300834,0.316268,0.331692,0.347071,0.362367,0.377545,0.39257,0.407406,0.422019,0.436376,0.450443,0.464187,0.477576,0.490577,0.503159,0.51529,0.526941,0.53808,0.548679,0.558708,0.568141,0.576948,0.585104,0.592585,0.599364,0.605421,0.610732,0.615278,0.61904,0.622001,0.624147,0.625463,0.625939,0.625566,0.624337,0.622248,0.619296,0.615484,0.610813,0.605291,0.598926,0.59173,0.583718,0.574907,0.565318,0.554975,0.543903,0.532133,0.519695,0.506626,0.492962,0.478744,0.464014,0.448818,0.433202,0.417215,0.400909,0.384335,0.367549,0.350606,0.33356,0.31647,0.299393,0.282385,0.265505,0.24881,0.232355,0.216195,0.200385,0.184976,0.170018,0.155558,0.141641,0.128308,0.115596,0.103539,0.0921653,0.0814989,0.0715576,0.0623533,0.0538909,0.0461677,0.0391731,0.0328871,0.0272802,0.0223121,0.0179313,0.0140748,0.0106678,0.00762511,0.00485382,0.00225856,-0.000248882,-0.00273472,-0.00522325,-0.0076772,-0.00999559
-0.0115674,-0.00379701,0.00316096,0.00954178,0.0155454,0.0213516,0.0271216,0.0329969,0.0390976,0.0455217,0.0523462,0.059629,0.0674112,0.0757188,0.0845654,0.0939539,0.103879,0.114326,0.125278,0.13671,0.148595,0.160903,0.1736,0.186652,0.200024,0.213678,0.227578,0.241687,0.255967,0.27038,0.28489,0.299459,0.314052,0.328632,0.343163,0.35761,0.371939,0.386116,0.400107,0.413878,0.427398,0.440633,0.453553,0.466127,0.478323,0.490112,0.501465,0.512353,0.522748,0.532623,0.54195,0.550706,0.558864,0.566402,0.573297,0.579526,0.585072,0.589913,0.594034,0.597418,0.600052,0.601923,0.60302,0.603334,0.60286,0.601593,0.59953,0.596672,0.59302,0.588579,0.583357,0.577363,0.570609,0.563109,0.554881,0.545944,0.536321,0.526035,0.515115,0.50359,0.491491,0.478852,0.46571,0.452103,0.438072,0.423657,0.408904,0.393857,0.378562,0.363068,0.347422,0.331675,0.315876,0.300076,0.284324,0.268671,0.253167,0.23786,0.222798,0.208028,0.193595,0.179542,0.16591,0.152737,0.140057,0.127903,0.116302,0.105279,0.094851,0.0850328,0.0758319,0.0672499,0.0592814,0.0519133,0.0451246,0.0388852,0.033156,0.0278882,0.023023,0.0184929,0.0142221,0.0101298,0.00613391,0.00215803,-0.00186073,-0.00596352,-0.0101672,-0.0144776
-0.0125465,-0.0030392,0.00546148,0.0132095,0.0204191,0.0272766,0.0339461,0.0405705,0.0472723,0.0541538,0.0612984,0.0687719,0.076624,0.0848903,0.0935942,0.102748,0.112356,0.122414,0.13291,0.14383,0.155152,0.166853,0.178906,0.191282,0.203949,0.216875,0.230028,0.243372,0.256873,0.270497,0.284208,0.297971,0.311752,0.325516,0.339229,0.352857,0.366367,0.379725,0.392901,0.40586,0.418573,0.431008,0.443135,0.454925,0.466349,0.477378,0.487985,0.498143,0.507827,0.517011,0.525671,0.533784,0.541327,0.54828,0.554622,0.560336,0.565403,0.569807,0.573534,0.576571,0.578906,0.580529,0.581433,0.58161,0.581057,0.579772,0.577753,0.575002,0.571522,0.56732,0.562404,0.556782,0.550468,0.543475,0.535821,0.527523,0.518603,0.509083,0.498989,0.488346,0.477184,0.465535,0.453429,0.440901,0.427987,0.414724,0.401151,0.387306,0.373232,0.358969,0.34456,0.330048,0.315477,0.300889,0.286328,0.271838,0.257461,0.24324,0.229216,0.215428,0.201916,0.188716,0.175862,0.163387,0.15132,0.139688,0.128513,0.117814,0.107606,0.0978992,0.0886971,0.0799985,0.0717958,0.0640742,0.0568119,0.049979,0.0435376,0.0374412,0.0316354,0.0260579,0.0206399,0.0153083,0.00998801,0.00460619,-0.000904736,-0.00660527,-0.012553,-0.0188171
-0.0122075,-0.00127659,0.00851416,0.0174166,0.0256469,0.0333933,0.0408207,0.048073,0.0552746,0.0625312,0.0699308,0.0775451,0.085431,0.0936318,0.102179,0.111092,0.120384,0.130058,0.140111,0.150533,0.16131,0.172425,0.183856,0.195578,0.207566,0.219789,0.232219,0.244825,0.257574,0.270434,0.283373,0.296356,0.309352,0.322328,0.335249,0.348085,0.360803,0.373371,0.385759,0.397935,0.409869,0.421533,0.432897,0.443933,0.454614,0.464914,0.474806,0.484267,0.493271,0.501797,0.509821,0.517324,0.524285,0.530686,0.536509,0.541739,0.546359,0.550357,0.553721,0.55644,0.558505,0.559908,0.560644,0.560709,0.5601,0.558816,0.556858,0.55423,0.550936,0.546982,0.542378,0.537132,0.531258,0.52477,0.517682,0.510013,0.501782,0.493009,0.483719,0.473934,0.463681,0.452987,0.441881,0.430393,0.418554,0.406397,0.393955,0.381263,0.368356,0.35527,0.342041,0.328707,0.315304,0.30187,0.288442,0.275056,0.261749,0.248558,0.235516,0.222658,0.210016,0.19762,0.185501,0.173684,0.162193,0.151051,0.140275,0.129881,0.119878,0.110273,0.101067,0.0922569,0.0838325,0.0757781,0.0680711,0.0606822,0.0535745,0.0467041,0.0400197,0.0334634,0.0269713,0.0204749,0.0139027,0.00718185,0.000238615,-0.00700275,-0.0146257,-0.0227333
-0.0104345,0.00162413,0.0124548,0.0222971,0.0313616,0.0398335,0.0478764,0.0556338,0.0632309,0.0707754,0.0783589,0.0860575,0.0939334,0.102036,0.110403,0.119062,0.128031,0.13732,0.146932,0.156864,0.167108,0.177651,0.188476,0.199563,0.21089,0.222431,0.234161,0.246049,0.258069,0.270189,0.282378,0.294606,0.306841,0.319052,0.331207,0.343275,0.355227,0.36703,0.378656,0.390074,0.401257,0.412177,0.422805,0.433115,0.443083,0.452682,0.46189,0.470682,0.479038,0.486936,0.494357,0.501281,0.507692,0.513572,0.518907,0.523684,0.527889,0.531511,0.534542,0.536972,0.538795,0.540005,0.540599,0.540574,0.539931,0.538669,0.536791,0.534301,0.531206,0.527511,0.523226,0.518362,0.51293,0.506944,0.500418,0.49337,0.485816,0.477776,0.46927,0.460321,0.450951,0.441184,0.431045,0.420562,0.40976,0.398668,0.387314,0.375729,0.363941,0.351982,0.339883,0.327674,0.315388,0.303054,0.290705,0.27837,0.266082,0.253869,0.24176,0.229783,0.217966,0.206334,0.194909,0.183714,0.172769,0.162089,0.15169,0.141582,0.131771,0.122262,0.113053,0.104138,0.0955053,0.0871389,0.0790157,0.0711066,0.0633764,0.0557828,0.0482776,0.040806,0.0333077,0.0257174,0.0179656,0.00997843,0.00167767,-0.007022,-0.016218,-0.0260283
-0.00716476,0.00575093,0.0173837,0.0279573,0.0376724,0.0467084,0.0552251,0.0633642,0.0712505,0.0789927,0.0866844,0.0944051,0.102221,0.110186,0.118344,0.126727,0.135358,0.144254,0.153423,0.162868,0.172583,0.182562,0.192793,0.203258,0.213938,0.224813,0.235859,0.24705,0.258359,0.269758,0.281218,0.292711,0.304207,0.315675,0.327086,0.33841,0.349617,0.360679,0.371567,0.382253,0.39271,0.40291,0.412829,0.422441,0.431722,0.440648,0.449199,0.457353,0.465089,0.472389,0.479235,0.485611,0.491501,0.496892,0.501769,0.506123,0.509943,0.513219,0.515945,0.518114,0.519722,0.520766,0.521242,0.521152,0.520496,0.519276,0.517496,0.515161,0.512278,0.508854,0.504898,0.500421,0.495433,0.48995,0.483983,0.477548,0.470662,0.463342,0.455606,0.447473,0.438963,0.430098,0.420899,0.411388,0.40159,0.391526,0.381222,0.370702,0.359991,0.349115,0.3381,0.32697,0.315751,0.304471,0.293152,0.281822,0.270505,0.259225,0.248005,0.236868,0.225836,0.214928,0.204164,0.19356,0.183132,0.172892,0.16285,0.153013,0.143386,0.133969,0.124759,0.115746,0.10692,0.098263,0.0897513,0.0813569,0.0730454,0.0647768,0.0565048,0.0481777,0.0397379,0.0311226,0.0222637,0.0130874,0.00351315,-0.00654869,-0.0172009,-0.028565
-0.00236854,0.011159,0.0233724,0.0344789,0.0446674,0.0541097,0.0629606,0.0713585,0.0794269,0.0872744,0.0949957,0.102672,0.110374,0.118157,0.12607,0.13415,0.142424,0.150913,0.159631,0.168583,0.17777,0.187189,0.19683,0.206681,0.216727,0.226948,0.237324,0.247831,0.258445,0.26914,0.27989,0.290666,0.301441,0.312186,0.322872,0.333472,0.343957,0.3543,0.364472,0.374448,0.384202,0.393707,0.402941,0.411879,0.420499,0.428779,0.4367,0.444242,0.451386,0.458116,0.464417,0.470273,0.475671,0.480601,0.48505,0.48901,0.492473,0.495431,0.497881,0.499816,0.501236,0.502138,0.502522,0.502389,0.501742,0.500585,0.498921,0.496756,0.494099,0.490957,0.487339,0.483255,0.478717,0.473737,0.468328,0.462503,0.456278,0.449667,0.442687,0.435354,0.427686,0.4197,0.411416,0.402851,0.394025,0.384958,0.375669,0.366178,0.356506,0.346674,0.336701,0.326608,0.316417,0.306146,0.295817,0.285449,0.275062,0.264674,0.254304,0.24397,0.233687,0.223472,0.213338,0.203299,0.193364,0.183543,0.173843,0.164267,0.154817,0.14549,0.136282,0.127182,0.118177,0.10925,0.100377,0.0915305,0.0826773,0.0737791,0.0647918,0.0556659,0.0463466,0.0367734,0.0268799,0.0165935,0.00583376,-0.00548911,-0.0174775,-0.0302497
0.00396215,0.0178801,0.0304698,0.0419224,0.0524153,0.0621117,0.0711604,0.0796961,0.0878398,0.0956992,0.103369,0.110933,0.118461,0.126015,0.133643,0.141387,0.149279,0.157342,0.165595,0.174046,0.1827,0.191558,0.200612,0.209854,0.219271,0.228847,0.238563,0.248398,0.258331,0.268336,0.27839,0.288465,0.298536,0.308574,0.318555,0.328449,0.338231,0.347874,0.357351,0.366638,0.37571,0.384544,0.393115,0.401403,0.409386,0.417045,0.424361,0.431316,0.437895,0.444081,0.449863,0.455227,0.460162,0.464657,0.468706,0.4723,0.475433,0.478101,0.480301,0.482029,0.483286,0.484071,0.484386,0.484233,0.483616,0.48254,0.481009,0.479032,0.476615,0.473767,0.470497,0.466814,0.462731,0.458257,0.453405,0.448187,0.442617,0.436707,0.430472,0.423926,0.417083,0.409959,0.402567,0.394925,0.387046,0.378947,0.370643,0.36215,0.353484,0.34466,0.335694,0.326603,0.317401,0.308103,0.298726,0.289283,0.27979,0.27026,0.260706,0.251141,0.241578,0.232027,0.222498,0.213,0.20354,0.194122,0.184751,0.175427,0.16615,0.156914,0.147714,0.138537,0.129369,0.120193,0.110985,0.101719,0.0923617,0.0828772,0.0732232,0.0633528,0.0532135,0.0427473,0.0318904,0.0205724,0.00871522,-0.00376832,-0.0169764,-0.0310203
0.0118215,0.0259296,0.0387074,0.0503316,0.0609686,0.0707731,0.0798877,0.0884425,0.0965559,0.104334,0.111871,0.11925,0.126545,0.133816,0.141116,0.148489,0.155969,0.163584,0.171354,0.179291,0.187404,0.195695,0.20416,0.212794,0.221585,0.230521,0.239585,0.248757,0.258018,0.267345,0.276715,0.286103,0.295484,0.304832,0.314122,0.323328,0.332424,0.341385,0.350186,0.358804,0.367215,0.375396,0.383327,0.390986,0.398355,0.405415,0.41215,0.418543,0.424581,0.43025,0.435538,0.440435,0.444932,0.449021,0.452695,0.455949,0.458779,0.461183,0.463158,0.464704,0.465822,0.466514,0.466782,0.46663,0.466064,0.465088,0.463709,0.461934,0.459772,0.45723,0.454317,0.451044,0.44742,0.443456,0.439163,0.434551,0.429632,0.424418,0.418919,0.413149,0.407118,0.400838,0.394322,0.387582,0.380628,0.373473,0.366128,0.358606,0.350916,0.343072,0.335083,0.326961,0.318717,0.31036,0.301903,0.293354,0.284724,0.276021,0.267254,0.258432,0.249563,0.240653,0.231707,0.222732,0.21373,0.204703,0.195652,0.186575,0.177469,0.168327,0.15914,0.149897,0.140583,0.131179,0.121663,0.112007,0.102183,0.0921529,0.0818787,0.0713151,0.0604125,0.0491159,0.0373643,0.0250907,0.0122209,-0.00132744,-0.0156462,-0.0308374
0.0211948,0.0353111,0.0481035,0.0597366,0.0703665,0.0801398,0.0891928,0.0976514,0.105631,0.113234,0.120556,0.127679,0.134676,0.141611,0.148537,0.1555,0.162536,0.169676,0.176942,0.184349,0.191908,0.199623,0.207495,0.215518,0.223684,0.231982,0.240398,0.248914,0.257511,0.266168,0.274865,0.283577,0.29228,0.300951,0.309565,0.318096,0.326522,0.334818,0.34296,0.350927,0.358694,0.366243,0.373553,0.380604,0.38738,0.393863,0.400039,0.405893,0.411413,0.416588,0.421407,0.425862,0.429945,0.433652,0.436976,0.439915,0.442467,0.44463,0.446405,0.447792,0.448795,0.449416,0.449659,0.449529,0.449033,0.448176,0.446965,0.445408,0.443514,0.44129,0.438746,0.435891,0.432733,0.429283,0.425551,0.421545,0.417275,0.412751,0.407983,0.402979,0.397749,0.392302,0.386647,0.380791,0.374744,0.368513,0.362106,0.355531,0.348795,0.341904,0.334866,0.327687,0.320374,0.312932,0.305367,0.297686,0.289892,0.281992,0.273989,0.265887,0.25769,0.249402,0.241023,0.232556,0.224,0.215354,0.206617,0.197784,0.18885,0.179805,0.170642,0.161345,0.151901,0.14229,0.13249,0.122476,0.112218,0.101683,0.0908321,0.0796242,0.0680122,0.0559442,0.0433631,0.030206,0.0164035,0.00187929,-0.0134505,-0.0296782
0.0320618,0.0460198,0.0586668,0.0701569,0.0806369,0.0902463,0.0991156,0.107366,0.115109,0.122447,0.129472,0.136266,0.142902,0.149444,0.155947,0.162458,0.169016,0.175651,0.182389,0.189246,0.196236,0.203365,0.210634,0.218041,0.22558,0.23324,0.24101,0.248873,0.256811,0.264806,0.272837,0.280882,0.288919,0.296924,0.304873,0.312745,0.320514,0.32816,0.335658,0.342989,0.350131,0.357065,0.363772,0.370234,0.376436,0.382363,0.388,0.393336,0.39836,0.403062,0.407434,0.41147,0.415164,0.418511,0.421509,0.424157,0.426453,0.428399,0.429996,0.431247,0.432156,0.432727,0.432966,0.432878,0.432469,0.431749,0.430722,0.429399,0.427786,0.425893,0.423727,0.421298,0.418613,0.415683,0.412514,0.409115,0.405494,0.401659,0.397616,0.393373,0.388936,0.384311,0.379504,0.374521,0.369365,0.364042,0.358555,0.352908,0.347105,0.341148,0.335039,0.328782,0.322378,0.315828,0.309135,0.302299,0.295322,0.288203,0.280944,0.273545,0.266005,0.258323,0.250498,0.242528,0.23441,0.22614,0.217714,0.209125,0.200365,0.191425,0.182293,0.172957,0.1634,0.153603,0.143545,0.1332,0.122542,0.111538,0.100152,0.0883461,0.0760752,0.0632914,0.0499417,0.0359678,0.0213062,0.00588721,-0.0103646,-0.0275311
0.0443987,0.0580452,0.0703985,0.0816032,0.0917988,0.101118,0.109686,0.11762,0.125029,0.132011,0.138657,0.145049,0.151259,0.157352,0.163382,0.169398,0.175439,0.181539,0.187722,0.194008,0.200411,0.206939,0.213595,0.220379,0.227285,0.234305,0.241428,0.248639,0.255922,0.26326,0.270632,0.278017,0.285395,0.292744,0.30004,0.307262,0.314388,0.321396,0.328265,0.334975,0.341507,0.347842,0.353962,0.359853,0.3655,0.370888,0.376006,0.380844,0.385391,0.389642,0.393588,0.397225,0.40055,0.40356,0.406253,0.408631,0.410694,0.412444,0.413885,0.415021,0.415856,0.416397,0.41665,0.416622,0.41632,0.415752,0.414925,0.413849,0.412531,0.410979,0.409202,0.407208,0.405004,0.402598,0.399997,0.397208,0.394236,0.391088,0.387768,0.384281,0.380631,0.376822,0.372855,0.368733,0.364457,0.360029,0.355449,0.350716,0.34583,0.340791,0.335595,0.330242,0.32473,0.319056,0.313217,0.30721,0.301033,0.294682,0.288153,0.281442,0.274547,0.267461,0.260181,0.252702,0.245017,0.23712,0.229005,0.220661,0.212081,0.203254,0.194166,0.184804,0.175151,0.165189,0.154896,0.14425,0.133223,0.121785,0.109904,0.097542,0.0846592,0.071211,0.0571487,0.0424192,0.0269649,0.0107236,-0.00637185,-0.0243929
0.0581798,0.071373,0.0832939,0.09408,0.103864,0.112773,0.120928,0.128441,0.135418,0.141956,0.148143,0.154061,0.159781,0.165366,0.170873,0.176349,0.181835,0.187364,0.192964,0.198655,0.204451,0.210362,0.216393,0.222543,0.22881,0.235185,0.241659,0.248218,0.254847,0.26153,0.268247,0.274979,0.281705,0.288405,0.295057,0.30164,0.308133,0.314515,0.320767,0.32687,0.332805,0.338555,0.344105,0.34944,0.354547,0.359414,0.36403,0.368387,0.372478,0.376295,0.379834,0.383093,0.386068,0.388761,0.391169,0.393297,0.395146,0.39672,0.398025,0.399064,0.399845,0.400375,0.40066,0.400709,0.400529,0.400129,0.399517,0.398701,0.39769,0.396491,0.395113,0.393563,0.391846,0.389971,0.387943,0.385766,0.383445,0.380985,0.378387,0.375654,0.372788,0.369788,0.366655,0.363388,0.359984,0.356442,0.352758,0.348929,0.34495,0.340815,0.336521,0.33206,0.327428,0.322616,0.31762,0.312431,0.307042,0.301448,0.295639,0.289609,0.283351,0.276856,0.270117,0.263125,0.255872,0.248349,0.240547,0.232455,0.224062,0.215357,0.206325,0.196952,0.187221,0.177115,0.166612,0.155691,0.144325,0.132487,0.120146,0.107268,0.0938172,0.0797515,0.0650275,0.0495974,0.0334098,0.0164096,-0.00146149,-0.0202652
0.073378,0.0859858,0.0973447,0.107586,0.116838,0.125222,0.132856,0.139847,0.146299,0.152307,0.157957,0.163329,0.168493,0.173513,0.178444,0.183335,0.188226,0.19315,0.198137,0.203206,0.208373,0.21365,0.21904,0.224546,0.230164,0.235888,0.241708,0.247613,0.253588,0.259617,0.265682,0.271764,0.277845,0.283902,0.289917,0.295869,0.301738,0.307505,0.313151,0.318657,0.324008,0.329187,0.334179,0.338973,0.343555,0.347916,0.352047,0.35594,0.359589,0.36299,0.366141,0.369038,0.371683,0.374075,0.376218,0.378113,0.379767,0.381183,0.382369,0.383329,0.384073,0.384608,0.384942,0.385083,0.38504,0.384823,0.384438,0.383896,0.383203,0.382369,0.381398,0.3803,0.379079,0.377741,0.37629,0.37473,0.373063,0.371292,0.369416,0.367437,0.365353,0.363161,0.360858,0.358441,0.355905,0.353243,0.35045,0.347517,0.344437,0.341201,0.3378,0.334224,0.330464,0.326508,0.322346,0.317968,0.313363,0.308519,0.303426,0.298073,0.292449,0.286542,0.280343,0.27384,0.267022,0.259877,0.252394,0.244561,0.236365,0.227793,0.218831,0.209464,0.199674,0.189444,0.178755,0.167584,0.155908,0.143701,0.130934,0.117578,0.103598,0.0889573,0.0736172,0.0575352,0.0406662,0.0229624,0.00437332,-0.015153
0.0899663,0.101864,0.112539,0.122117,0.130722,0.138473,0.145481,0.151854,0.15769,0.163084,0.168119,0.172874,0.177419,0.181815,0.186119,0.190378,0.194632,0.198916,0.203257,0.207678,0.212194,0.216815,0.221549,0.226396,0.231355,0.23642,0.241581,0.246828,0.252147,0.257522,0.262936,0.268371,0.273809,0.279229,0.284613,0.289941,0.295194,0.300354,0.305403,0.310323,0.315101,0.31972,0.324167,0.328432,0.332503,0.336371,0.34003,0.343474,0.346697,0.349698,0.352474,0.355027,0.357356,0.359465,0.361358,0.363038,0.364512,0.365787,0.366869,0.367767,0.368489,0.369044,0.369441,0.369689,0.369797,0.369775,0.36963,0.369372,0.369009,0.368548,0.367995,0.367357,0.366638,0.365843,0.364975,0.364036,0.363028,0.361948,0.360798,0.359573,0.358271,0.356887,0.355415,0.353847,0.352176,0.350392,0.348486,0.346447,0.344264,0.341923,0.339412,0.336717,0.333826,0.330723,0.327394,0.323825,0.320001,0.315908,0.31153,0.306854,0.301866,0.296551,0.290896,0.284886,0.278508,0.271749,0.264594,0.25703,0.249044,0.24062,0.231743,0.222398,0.212568,0.202236,0.191383,0.179988,0.168028,0.155482,0.142321,0.128519,0.114046,0.098869,0.0829533,0.0662622,0.0487567,0.0303958,0.0111372,-0.0090624
0.107917,0.118988,0.128863,0.137665,0.145514,0.152526,0.158809,0.164469,0.169603,0.1743,0.178645,0.182714,0.186575,0.190291,0.193915,0.197494,0.20107,0.204677,0.208341,0.212085,0.215924,0.21987,0.22393,0.228104,0.232392,0.236788,0.241283,0.245866,0.250525,0.255244,0.260007,0.264796,0.269594,0.27438,0.279138,0.283848,0.288491,0.293051,0.297511,0.301854,0.306067,0.310136,0.314049,0.317796,0.321367,0.324756,0.327955,0.330962,0.333773,0.336387,0.338803,0.341024,0.343053,0.344893,0.346549,0.348029,0.349338,0.350485,0.351479,0.352328,0.353041,0.35363,0.354102,0.354469,0.35474,0.354924,0.355031,0.355068,0.355043,0.354964,0.354837,0.354667,0.354458,0.354213,0.353933,0.353621,0.353274,0.352891,0.352469,0.352002,0.351485,0.35091,0.350269,0.349552,0.348747,0.347843,0.346826,0.345681,0.344395,0.34295,0.34133,0.339519,0.337498,0.33525,0.332756,0.329999,0.32696,0.323621,0.319964,0.315971,0.311625,0.306908,0.301804,0.296297,0.290369,0.284006,0.277192,0.269911,0.262148,0.253887,0.245112,0.235809,0.225959,0.215546,0.204551,0.192956,0.18074,0.16788,0.154355,0.140139,0.125205,0.109525,0.0930688,0.0758053,0.0577012,0.0387223,0.0188337,-0.00199964
0.127203,0.137336,0.146301,0.154219,0.161207,0.16738,0.172843,0.1777,0.182044,0.185966,0.189547,0.192861,0.195976,0.198953,0.201845,0.2047,0.207555,0.210447,0.2134,0.216438,0.219576,0.222825,0.226191,0.229677,0.23328,0.236996,0.240816,0.24473,0.248724,0.252784,0.256894,0.261037,0.265195,0.269351,0.273485,0.27758,0.281619,0.285585,0.289462,0.293236,0.296893,0.30042,0.303807,0.307046,0.310127,0.313046,0.315797,0.318378,0.320787,0.323026,0.325094,0.326996,0.328736,0.330319,0.331752,0.333043,0.334199,0.335231,0.336147,0.336959,0.337676,0.338309,0.338869,0.339365,0.339809,0.340209,0.340576,0.340917,0.34124,0.341551,0.341857,0.342162,0.342469,0.34278,0.343095,0.343414,0.343735,0.344053,0.344363,0.344658,0.34493,0.345169,0.345364,0.345501,0.345566,0.345546,0.345421,0.345176,0.344791,0.344248,0.343525,0.342602,0.341458,0.340072,0.338421,0.336483,0.334237,0.331661,0.328734,0.325434,0.321741,0.317634,0.313094,0.308101,0.302638,0.296686,0.290227,0.283245,0.275722,0.267642,0.258989,0.249746,0.239897,0.229425,0.218312,0.20654,0.194091,0.180946,0.167082,0.152479,0.137113,0.12096,0.103994,0.0861899,0.067519,0.0479538,0.0274666,0.00603002
0.147797,0.156886,0.164835,0.171766,0.177794,0.18303,0.187581,0.191547,0.19502,0.198088,0.200832,0.203324,0.205632,0.207814,0.209923,0.212005,0.214098,0.216236,0.218446,0.220748,0.223158,0.225687,0.22834,0.23112,0.234025,0.237049,0.240185,0.243421,0.246744,0.250141,0.253596,0.257091,0.26061,0.264134,0.267647,0.271131,0.274569,0.277945,0.281245,0.284455,0.287561,0.290554,0.293423,0.296161,0.29876,0.301218,0.303529,0.305694,0.307712,0.309584,0.311314,0.312907,0.314368,0.315705,0.316924,0.318036,0.31905,0.319976,0.320826,0.32161,0.322339,0.323026,0.323681,0.324316,0.324941,0.325566,0.3262,0.326853,0.32753,0.328239,0.328984,0.32977,0.330599,0.331472,0.332388,0.333344,0.334337,0.335362,0.33641,0.337473,0.33854,0.339598,0.340635,0.341633,0.342576,0.343445,0.344222,0.344884,0.345409,0.345776,0.34596,0.345936,0.34568,0.345166,0.34437,0.343264,0.341825,0.340026,0.337842,0.33525,0.332225,0.328745,0.324785,0.320325,0.315343,0.30982,0.303736,0.297071,0.289808,0.28193,0.273418,0.264258,0.254431,0.243921,0.232713,0.220788,0.208131,0.194723,0.180546,0.165581,0.149809,0.133209,0.11576,0.0974404,0.0782284,0.0581022,0.0370406,0.0150232
0.169673,0.177615,0.184448,0.190292,0.195263,0.199471,0.20302,0.206009,0.208531,0.21067,0.212506,0.214111,0.21555,0.216881,0.218156,0.219419,0.220708,0.222056,0.223487,0.225023,0.226678,0.228464,0.230384,0.23244,0.234631,0.236951,0.239391,0.241941,0.244587,0.247315,0.25011,0.252955,0.255833,0.258726,0.261618,0.264492,0.267331,0.270121,0.272847,0.275497,0.278058,0.280521,0.282878,0.285121,0.287246,0.289249,0.291128,0.292883,0.294516,0.296031,0.297431,0.298722,0.299913,0.30101,0.302024,0.302965,0.303844,0.304673,0.305463,0.306226,0.306976,0.307723,0.308481,0.309261,0.310073,0.310929,0.311837,0.312806,0.313843,0.314955,0.316146,0.317418,0.318774,0.320214,0.321736,0.323335,0.325007,0.326744,0.328536,0.330374,0.332243,0.334129,0.336015,0.337882,0.339712,0.341482,0.34317,0.344751,0.3462,0.34749,0.348593,0.349483,0.35013,0.350506,0.35058,0.350325,0.34971,0.348706,0.347286,0.345422,0.343086,0.340251,0.336893,0.332987,0.328509,0.323436,0.317748,0.311424,0.304443,0.296789,0.288442,0.279386,0.269604,0.259081,0.2478,0.235746,0.222903,0.209256,0.194788,0.179485,0.163329,0.146305,0.128394,0.109581,0.0898484,0.0691804,0.0475618,0.0249788
0.192804,0.1995,0.20512,0.209782,0.213603,0.216692,0.219153,0.221084,0.222576,0.223712,0.224572,0.225226,0.225737,0.226162,0.226552,0.22695,0.227392,0.227911,0.22853,0.22927,0.230143,0.231161,0.232326,0.233641,0.235102,0.236704,0.238437,0.24029,0.242251,0.244305,0.246435,0.248626,0.25086,0.253121,0.255391,0.257655,0.259897,0.262102,0.264256,0.266349,0.268368,0.270306,0.272154,0.273907,0.275561,0.277115,0.278567,0.279918,0.281173,0.282335,0.28341,0.284406,0.285331,0.286195,0.28701,0.287785,0.288535,0.289271,0.290006,0.290754,0.291528,0.292341,0.293206,0.294135,0.295139,0.296229,0.297415,0.298705,0.300106,0.301625,0.303264,0.305028,0.306916,0.308927,0.311059,0.313307,0.315663,0.318119,0.320663,0.323283,0.325962,0.328685,0.331431,0.334179,0.336908,0.339592,0.342205,0.344719,0.347107,0.349337,0.351379,0.353201,0.354772,0.356057,0.357024,0.35764,0.357873,0.357689,0.357057,0.355945,0.354322,0.35216,0.349429,0.346102,0.342153,0.337558,0.332292,0.326333,0.319661,0.312256,0.304099,0.295172,0.28546,0.274946,0.263616,0.251455,0.23845,0.224586,0.20985,0.194229,0.17771,0.16028,0.141926,0.122636,0.102399,0.0812027,0.0590387,0.0358991
0.217163,0.222519,0.226831,0.23022,0.232801,0.234684,0.235974,0.236766,0.237152,0.237214,0.23703,0.236669,0.236194,0.235659,0.235114,0.234601,0.234156,0.233808,0.233581,0.233493,0.233558,0.233783,0.234173,0.234727,0.235441,0.23631,0.237324,0.238471,0.239737,0.241108,0.242568,0.2441,0.245687,0.247312,0.24896,0.250613,0.252256,0.253877,0.255461,0.256997,0.258477,0.259891,0.261233,0.262499,0.263686,0.264793,0.26582,0.266772,0.267651,0.268464,0.269218,0.269921,0.270585,0.271219,0.271837,0.27245,0.273073,0.273719,0.274402,0.275138,0.275939,0.276819,0.277793,0.278873,0.280071,0.281397,0.282863,0.284476,0.286243,0.288171,0.290262,0.292519,0.294942,0.297529,0.300276,0.303177,0.306224,0.309405,0.312708,0.316118,0.319618,0.323187,0.326805,0.330447,0.334089,0.337702,0.341257,0.344724,0.348069,0.351261,0.354263,0.357041,0.359559,0.361779,0.363666,0.365181,0.36629,0.366954,0.367139,0.366809,0.36593,0.36447,0.362397,0.35968,0.356291,0.352202,0.347389,0.341825,0.33549,0.328362,0.320423,0.311653,0.302036,0.291558,0.280203,0.267959,0.254813,0.240753,0.225769,0.20985,0.192985,0.175167,0.156385,0.136632,0.1159,0.0941854,0.0714824,0.0477896