-0,-0,-0,-0,-0,-0,-0,-0,-0,-0,-0,-0,-0,-0,-0,-0,-0,-0,-0,-0,-0,-0,-0,-0,-0,-0,-0,-0,-0,-0,-0,-0,-0,-0,-0,-0,-0,-0,-0,-0,-0,-0,-0,-0,-0,-0,-0,-0,-0,-0,-0,-0,-0,-0,-0,-0,-0,-0,-0,-0,-0,-0,-0,-0,-0,-0,-0,-0,-0,-0,-0,-0,-0,-0,-0,-0,-0,-0,-0,-0,-0,-0,-0,-0,-0,-0,-0,-0,-0,-0,-0,-0,-0,-0,-0,-0,-0,-0,-0,-0,-0,-0,-0,-0,-0,-0,-0,-0,-0,-0,-0,-0,-0,-0,-0,-0,-0,-0,-0,-0,-0,-0,-0,-0,-0,-0,-0,-0
-0,1.87985e-08,6.30017e-08,1.08978e-07,1.44583e-07,1.55002e-07,1.30567e-07,7.78706e-08,-3.14171e-09,-1.05046e-07,-2.41744e-07,-4.1149e-07,-6.02059e-07,-8.14895e-07,-1.04653e-06,-1.28643e-06,-1.56024e-06,-1.85301e-06,-2.15289e-06,-2.46497e-06,-2.76875e-06,-3.11404e-06,-3.4592e-06,-3.80647e-06,-4.1587e-06,-4.51222e-06,-4.84776e-06,-5.23343e-06,-5.59984e-06,-5.96236e-06,-6.32556e-06,-6.68349e-06,-7.01187e-06,-7.40527e-06,-7.75746e-06,-8.10444e-06,-8.44929e-06,-8.78479e-06,-9.08218e-06,-9.45578e-06,-9.7721e-06,-1.00816e-05,-1.03875e-05,-1.06819e-05,-1.09338e-05,-1.12618e-05,-1.15278e-05,-1.17845e-05,-1.2035e-05,-1.22735e-05,-1.24707e-05,-1.27273e-05,-1.2931e-05,-1.31227e-05,-1.33039e-05,-1.34729e-05,-1.36087e-05,-1.3769e-05,-1.38982e-05,-1.40138e-05,-1.41135e-05,-1.42004e-05,-1.42716e-05,-1.43294e-05,-1.43507e-05,-1.43781e-05,-1.43902e-05,-1.43816e-05,-1.43606e-05,-1.43178e-05,-1.42916e-05,-1.41576e-05,-1.40683e-05,-1.39639e-05,-1.38376e-05,-1.37004e-05,-1.35383e-05,-1.3421e-05,-1.31388e-05,-1.29261e-05,-1.27009e-05,-1.24565e-05,-1.22046e-05,-1.19292e-05,-1.17199e-05,-1.13197e-05,-1.09938e-05,-1.06604e-05,-1.03132e-05,-9.96421e-06,-9.59774e-06,-9.30687e-06,-8.83945e-06,-8.43393e-06,-8.02602e-06,-7.61383e-06,-7.20455e-06,-6.79033e-06,-6.37603e-06,-6.02881e-06,-5.56594e-06,-5.13803e-06,-4.71778e-06,-4.30409e-06,-3.90294e-06,-3.51117e-06,-3.13068e-06,-2.80097e-06,-2.44124e-06,-2.09407e-06,-1.76273e-06,-1.454e-06,-1.1637e-06,-9.01147e-07,-6.60844e-07,-4.46745e-07,-2.93817e-07,-1.37504e-07,-7.09363e-09,8.98498e-08,1.62063e-07,1.98403e-07,2.06531e-07,1.84836e-07,1.93292e-07,7.52108e-08,2.35612e-08,-0
-0,6.13008e-08,1.7582e-07,2.823e-07,3.39715e-07,3.22052e-07,1.97103e-07,-4.35061e-08,-3.87961e-07,-8.28051e-07,-1.36314e-06,-2.01387e-06,-2.76466e-06,-3.59378e-06,-4.49904e-06,-5.46284e-06,-6.49026e-06,-7.60761e-06,-8.77791e-06,-9.98547e-06,-1.12148e-05,-1.24814e-05,-1.38199e-05,-1.51724e-05,-1.65349e-05,-1.79125e-05,-1.92767e-05,-2.06637e-05,-2.2106e-05,-2.35222e-05,-2.4926e-05,-2.63243e-05,-2.76821e-05,-2.90547e-05,-3.04725e-05,-3.18304e-05,-3.31612e-05,-3.44745e-05,-3.57269e-05,-3.69916e-05,-3.82892e-05,-3.95049e-05,-4.06822e-05,-4.1834e-05,-4.29123e-05,-4.39978e-05,-4.50987e-05,-4.61093e-05,-4.70725e-05,-4.80018e-05,-4.88531e-05,-4.96992e-05,-5.0535e-05,-5.12874e-05,-5.19856e-05,-5.26391e-05,-5.32178e-05,-5.37699e-05,-5.42768e-05,-5.47214e-05,-5.51078e-05,-5.54375e-05,-5.57099e-05,-5.59204e-05,-5.607e-05,-5.61263e-05,-5.61523e-05,-5.61233e-05,-5.60246e-05,-5.58638e-05,-5.56597e-05,-5.53635e-05,-5.49224e-05,-5.4485e-05,-5.39999e-05,-5.34425e-05,-5.28234e-05,-5.2187e-05,-5.14358e-05,-5.05039e-05,-4.9597e-05,-4.86547e-05,-4.76493e-05,-4.65917e-05,-4.55465e-05,-4.43856e-05,-4.3036e-05,-4.17191e-05,-4.03837e-05,-3.90041e-05,-3.75938e-05,-3.6224e-05,-3.47639e-05,-3.31465e-05,-3.15603e-05,-2.99758e-05,-2.8378e-05,-2.67782e-05,-2.51685e-05,-2.36357e-05,-2.20653e-05,-2.04169e-05,-1.87992e-05,-1.72161e-05,-1.56618e-05,-1.41493e-05,-1.26762e-05,-1.12971e-05,-9.95634e-06,-8.64875e-06,-7.38649e-06,-6.19504e-06,-5.08427e-06,-4.05824e-06,-3.12461e-06,-2.29367e-06,-1.5755e-06,-9.97341e-07,-4.95173e-07,-8.59877e-08,2.08089e-07,3.95152e-07,4.75148e-07,4.60156e-07,4.15038e-07,2.97623e-07,7.56685e-08,-0
-0,1.12009e-07,2.88119e-07,4.21655e-07,4.40979e-07,2.97255e-07,-4.75453e-08,-6.25072e-07,-1.43365e-06,-2.45415e-06,-3.67968e-06,-5.11361e-06,-6.76422e-06,-8.60033e-06,-1.06007e-05,-1.27406e-05,-1.50181e-05,-1.74312e-05,-1.99935e-05,-2.26496e-05,-2.53746e-05,-2.81717e-05,-3.10479e-05,-3.40194e-05,-3.7017e-05,-4.00473e-05,-4.30734e-05,-4.61311e-05,-4.921e-05,-5.23436e-05,-5.54336e-05,-5.85127e-05,-6.15343e-05,-6.45579e-05,-6.7563e-05,-7.05894e-05,-7.35228e-05,-7.6414e-05,-7.9211e-05,-8.19921e-05,-8.47245e-05,-8.74481e-05,-9.00474e-05,-9.25804e-05,-9.49945e-05,-9.73762e-05,-9.96851e-05,-0.000101951,-0.00010408,-0.00010612,-0.000108027,-0.000109879,-0.000111636,-0.000113311,-0.000114851,-0.000116282,-0.000117574,-0.00011878,-0.000119869,-0.000120832,-0.000121676,-0.000122392,-0.000122985,-0.000123437,-0.000123762,-0.000123945,-0.000123949,-0.000123863,-0.000123634,-0.000123273,-0.000122784,-0.000122131,-0.000121314,-0.000120276,-0.000119176,-0.000117934,-0.000116564,-0.000115097,-0.000113441,-0.000111619,-0.000109554,-0.000107451,-0.000105223,-0.000102889,-0.000100504,-9.79398e-05,-9.52285e-05,-9.22928e-05,-8.93396e-05,-8.62985e-05,-8.31912e-05,-8.00909e-05,-7.68606e-05,-7.35338e-05,-7.00485e-05,-6.65686e-05,-6.30614e-05,-5.95454e-05,-5.60199e-05,-5.25775e-05,-4.90998e-05,-4.5621e-05,-4.21056e-05,-3.86478e-05,-3.52488e-05,-3.19316e-05,-2.87062e-05,-2.56346e-05,-2.26635e-05,-1.981e-05,-1.70837e-05,-1.44837e-05,-1.20528e-05,-9.79324e-06,-7.73507e-06,-5.88971e-06,-4.27462e-06,-2.88459e-06,-1.77424e-06,-8.48918e-07,-1.55808e-07,3.21774e-07,5.80699e-07,6.43604e-07,5.90793e-07,4.08487e-07,1.94204e-07,-0
-0,1.4975e-07,3.53025e-07,4.4712e-07,3.32562e-07,-6.23014e-08,-7.89968e-07,-1.88262e-06,-3.36368e-06,-5.21324e-06,-7.41133e-06,-9.95596e-06,-1.28334e-05,-1.60469e-05,-1.9543e-05,-2.32905e-05,-2.72705e-05,-3.1478e-05,-3.58932e-05,-4.05174e-05,-4.52663e-05,-5.0145e-05,-5.51458e-05,-6.02537e-05,-6.54855e-05,-7.07454e-05,-7.60344e-05,-8.13542e-05,-8.67107e-05,-9.20823e-05,-9.74943e-05,-0.000102839,-0.000108128,-0.000113389,-0.000118616,-0.000123792,-0.000128949,-0.000133967,-0.00013887,-0.000143706,-0.000148458,-0.000153106,-0.000157685,-0.00016208,-0.000166316,-0.000170452,-0.000174464,-0.000178329,-0.000182074,-0.000185614,-0.000188957,-0.000192169,-0.000195218,-0.000198082,-0.000200774,-0.000203254,-0.000205511,-0.000207598,-0.000209484,-0.000211154,-0.000212594,-0.000213832,-0.000214845,-0.000215622,-0.000216176,-0.000216489,-0.000216561,-0.000216335,-0.000215935,-0.000215276,-0.000214402,-0.00021325,-0.000211833,-0.000210163,-0.000208149,-0.000205993,-0.000203574,-0.00020098,-0.000198084,-0.000194923,-0.00019152,-0.000187771,-0.000183912,-0.000179821,-0.00017562,-0.000171141,-0.000166437,-0.000161536,-0.000156343,-0.000151084,-0.000145665,-0.000140222,-0.000134585,-0.000128809,-0.000122925,-0.000116865,-0.000110804,-0.000104697,-9.8584e-05,-9.25511e-05,-8.64916e-05,-8.04419e-05,-7.44378e-05,-6.84555e-05,-6.25853e-05,-5.68374e-05,-5.12457e-05,-4.58822e-05,-4.0698e-05,-3.57175e-05,-3.09741e-05,-2.64892e-05,-2.22608e-05,-1.83393e-05,-1.47402e-05,-1.15042e-05,-8.64414e-06,-6.16131e-06,-4.06639e-06,-2.42965e-06,-1.12091e-06,-2.00661e-07,3.72507e-07,6.14985e-07,6.28556e-07,4.3726e-07,1.68624e-07,-0
-0,1.57044e-07,3.32043e-07,3.0335e-07,-6.59007e-08,-8.59357e-07,-2.14559e-06,-3.96503e-06,-6.33628e-06,-9.26646e-06,-1.27263e-05,-1.66944e-05,-2.11568e-05,-2.60843e-05,-3.14697e-05,-3.72365e-05,-4.33541e-05,-4.98092e-05,-5.65675e-05,-6.36037e-05,-7.08947e-05,-7.8369e-05,-8.60242e-05,-9.38353e-05,-0.000101773,-0.000109854,-0.000117946,-0.000126096,-0.000134287,-0.000142494,-0.000150702,-0.000158927,-0.000167023,-0.000175079,-0.000183071,-0.000190978,-0.000198789,-0.000206526,-0.000214033,-0.000221434,-0.000228694,-0.000235793,-0.000242721,-0.000249502,-0.000255985,-0.00026231,-0.000268432,-0.000274331,-0.000279996,-0.000285445,-0.00029056,-0.000295463,-0.000300107,-0.000304474,-0.000308552,-0.000312343,-0.00031579,-0.000318966,-0.000321832,-0.000324372,-0.000326574,-0.000328418,-0.000329952,-0.00033112,-0.000331947,-0.000332416,-0.000332507,-0.000332229,-0.000331514,-0.000330499,-0.00032912,-0.000327342,-0.000325177,-0.00032261,-0.000319662,-0.000316238,-0.00031254,-0.000308517,-0.000304075,-0.000299255,-0.000294051,-0.000288494,-0.00028248,-0.000276239,-0.000269756,-0.0002629,-0.000255728,-0.000248246,-0.000240494,-0.000232383,-0.000224126,-0.000215756,-0.000207135,-0.000198326,-0.000189349,-0.000180247,-0.000170964,-0.000161665,-0.000152332,-0.00014309,-0.000133828,-0.000124591,-0.000115427,-0.00010637,-9.74276e-05,-8.8667e-05,-8.01341e-05,-7.19239e-05,-6.39839e-05,-5.63594e-05,-4.90877e-05,-4.22036e-05,-3.57618e-05,-2.97427e-05,-2.42088e-05,-1.92143e-05,-1.47596e-05,-1.08783e-05,-7.56535e-06,-4.83948e-06,-2.76883e-06,-1.19278e-06,-1.59964e-07,4.04661e-07,5.89142e-07,4.63823e-07,1.93641e-07,-0
-0,1.35684e-07,2.01376e-07,-4.94448e-08,-7.99853e-07,-2.15797e-06,-4.1925e-06,-6.95659e-06,-1.04694e-05,-1.4728e-05,-1.97316e-05,-2.54421e-05,-3.18239e-05,-3.88433e-05,-4.64616e-05,-5.46477e-05,-6.33242e-05,-7.24577e-05,-8.20147e-05,-9.19493e-05,-0.000102205,-0.000112784,-0.000123594,-0.000134614,-0.000145812,-0.000157152,-0.000168616,-0.00018012,-0.000191674,-0.000203254,-0.000214823,-0.000226358,-0.000237847,-0.000249213,-0.000260485,-0.000271639,-0.000282648,-0.000293492,-0.00030416,-0.000314596,-0.00032483,-0.000334841,-0.000344603,-0.000354102,-0.000363315,-0.000372228,-0.000380849,-0.00038916,-0.000397137,-0.000404771,-0.000412023,-0.000418924,-0.000425456,-0.000431598,-0.000437334,-0.000442653,-0.000447505,-0.000451966,-0.000455986,-0.000459547,-0.000462637,-0.000465248,-0.000467342,-0.000468969,-0.000470115,-0.000470749,-0.000470866,-0.000470454,-0.000469511,-0.000467974,-0.000465991,-0.000463467,-0.000460389,-0.00045677,-0.000452604,-0.000447895,-0.000442562,-0.000436842,-0.000430569,-0.000423755,-0.000416431,-0.000408602,-0.00040028,-0.000391385,-0.000382203,-0.000372532,-0.000362414,-0.000351891,-0.000340981,-0.000329713,-0.000318025,-0.000306199,-0.00029405,-0.000281635,-0.000269009,-0.000256205,-0.000243261,-0.000230155,-0.000217025,-0.000203988,-0.000190929,-0.000177924,-0.000165021,-0.000152275,-0.000139732,-0.000127425,-0.00011541,-0.000103827,-9.26186e-05,-8.18479e-05,-7.157e-05,-6.18356e-05,-5.26823e-05,-4.41972e-05,-3.6345e-05,-2.92226e-05,-2.2848e-05,-1.7244e-05,-1.24265e-05,-8.41149e-06,-5.19337e-06,-2.83708e-06,-1.14012e-06,-1.22167e-07,3.62385e-07,4.00382e-07,1.8927e-07,-0
-0,7.99039e-08,-4.05165e-08,-6.35878e-07,-1.90499e-06,-3.99203e-06,-6.97941e-06,-1.09123e-05,-1.58156e-05,-2.16871e-05,-2.85043e-05,-3.62628e-05,-4.48994e-05,-5.43616e-05,-6.46011e-05,-7.55557e-05,-8.71961e-05,-9.94317e-05,-0.000112217,-0.000125493,-0.000139199,-0.000153284,-0.000167743,-0.000182459,-0.000197404,-0.000212533,-0.000227786,-0.00024318,-0.0002586,-0.000274048,-0.000289481,-0.000304871,-0.000320147,-0.000335368,-0.000350408,-0.000365285,-0.00037997,-0.000394436,-0.000408616,-0.000422595,-0.000436247,-0.000449592,-0.000462609,-0.000475276,-0.000487522,-0.000499449,-0.000510942,-0.000522013,-0.000532641,-0.000542811,-0.000552454,-0.000561663,-0.000570359,-0.000578531,-0.000586163,-0.000593238,-0.000599701,-0.000605611,-0.000610948,-0.000615674,-0.000619773,-0.000623232,-0.000626043,-0.000628133,-0.000629628,-0.00063045,-0.000630582,-0.00063001,-0.000628734,-0.000626747,-0.000623983,-0.00062058,-0.000616455,-0.000611615,-0.000606045,-0.000599759,-0.000592759,-0.000585003,-0.000576604,-0.000567508,-0.00055774,-0.000547301,-0.000536216,-0.000524499,-0.000512153,-0.000499238,-0.00048575,-0.000471733,-0.000457205,-0.000442207,-0.000426771,-0.000410951,-0.00039475,-0.000378216,-0.000361405,-0.000344362,-0.000327139,-0.000309785,-0.000292304,-0.00027492,-0.00025752,-0.000240196,-0.000223012,-0.000206035,-0.000189329,-0.000172961,-0.00015698,-0.000141527,-0.000126567,-0.000112181,-9.84413e-05,-8.54112e-05,-7.31489e-05,-6.17162e-05,-5.12053e-05,-4.16147e-05,-3.29798e-05,-2.53447e-05,-1.87349e-05,-1.3163e-05,-8.62616e-06,-5.10384e-06,-2.63565e-06,-9.73303e-07,-6.73162e-08,2.36672e-07,1.58862e-07,-0
-0,1.67039e-09,-3.83372e-07,-1.44533e-06,-3.39573e-06,-6.38281e-06,-1.05218e-05,-1.5857e-05,-2.2407e-05,-3.01627e-05,-3.9101e-05,-4.91921e-05,-6.04074e-05,-7.26616e-05,-8.58847e-05,-0.000100006,-0.000114956,-0.000130705,-0.000147133,-0.000164182,-0.000181767,-0.000199833,-0.00021833,-0.000237222,-0.000256381,-0.000275771,-0.000295316,-0.000314989,-0.000334791,-0.000354579,-0.000374355,-0.000394062,-0.000413638,-0.000433084,-0.000452399,-0.000471456,-0.000490265,-0.000508788,-0.000526959,-0.000544813,-0.000562342,-0.00057943,-0.000596096,-0.000612307,-0.000627997,-0.000643226,-0.000657966,-0.000672132,-0.000685731,-0.000698736,-0.000711082,-0.00072284,-0.000733961,-0.000744406,-0.000754156,-0.000763192,-0.000771453,-0.000779008,-0.000785786,-0.000791808,-0.000797027,-0.000801431,-0.000805004,-0.000807698,-0.000809523,-0.000810537,-0.000810672,-0.000809917,-0.000808257,-0.000805686,-0.000802208,-0.000797733,-0.000792423,-0.00078619,-0.000779049,-0.000770988,-0.00076201,-0.000752175,-0.000741315,-0.000729654,-0.000717127,-0.000703767,-0.000689582,-0.000674585,-0.000658894,-0.000642297,-0.000625032,-0.000607085,-0.00058851,-0.000569335,-0.000549599,-0.000529457,-0.000508707,-0.000487563,-0.000466061,-0.000444277,-0.000422264,-0.000400084,-0.000377807,-0.000355571,-0.000333318,-0.000311157,-0.00028918,-0.000267463,-0.000246092,-0.000225145,-0.000204702,-0.000184934,-0.000165767,-0.000147321,-0.000129679,-0.000112933,-9.7157e-05,-8.24166e-05,-6.87858e-05,-5.64151e-05,-4.51971e-05,-3.52287e-05,-2.65344e-05,-1.9135e-05,-1.30349e-05,-8.20338e-06,-4.5903e-06,-2.19112e-06,-6.9549e-07,-2.42673e-08,9.65795e-08,-0
-0,-9.77629e-08,-8.21902e-07,-2.47192e-06,-5.26128e-06,-9.3483e-06,-1.48348e-05,-2.18029e-05,-3.02531e-05,-4.01691e-05,-5.15229e-05,-6.42693e-05,-7.83605e-05,-9.37434e-05,-0.000110305,-0.00012796,-0.000146624,-0.000166225,-0.00018671,-0.000207934,-0.000229822,-0.000252297,-0.000275289,-0.000298729,-0.000322568,-0.000346659,-0.000370951,-0.000395392,-0.000419934,-0.000444559,-0.000469113,-0.000493592,-0.000517912,-0.000542056,-0.000565994,-0.000589704,-0.000613055,-0.000636058,-0.000658628,-0.000680791,-0.000702507,-0.000723762,-0.000744445,-0.000764569,-0.00078405,-0.000802944,-0.000821201,-0.000838798,-0.000855665,-0.000871797,-0.000887114,-0.00090169,-0.000915465,-0.000928401,-0.00094048,-0.000951672,-0.000961907,-0.000971257,-0.000979661,-0.000987064,-0.000993512,-0.000998942,-0.00100334,-0.00100666,-0.00100895,-0.0010101,-0.00101023,-0.00100926,-0.00100716,-0.00100395,-0.000999596,-0.000994109,-0.0009874,-0.000979636,-0.000970736,-0.000960707,-0.000949562,-0.000937324,-0.00092395,-0.000909383,-0.000893825,-0.000877225,-0.000859613,-0.000841021,-0.000821532,-0.000801058,-0.000779587,-0.000757328,-0.00073428,-0.000710499,-0.000686043,-0.000661054,-0.000635418,-0.000609186,-0.000582538,-0.000555526,-0.000528239,-0.000500755,-0.000473145,-0.000445614,-0.00041803,-0.000390555,-0.000363298,-0.000336363,-0.000309848,-0.000283857,-0.000258481,-0.00023391,-0.000210123,-0.00018719,-0.000165238,-0.000144374,-0.000124685,-0.000106267,-8.91933e-05,-7.35883e-05,-5.95144e-05,-4.6893e-05,-3.58421e-05,-2.63494e-05,-1.84334e-05,-1.20675e-05,-7.19176e-06,-3.70844e-06,-1.54149e-06,-3.88595e-07,1.5189e-08,-0
-0,-2.37914e-07,-1.36928e-06,-3.72073e-06,-7.50921e-06,-1.28791e-05,-1.99408e-05,-2.87557e-05,-3.93587e-05,-5.17115e-05,-6.57648e-05,-8.14753e-05,-9.87766e-05,-0.000117586,-0.000137839,-0.000159382,-0.000182126,-0.000205983,-0.000230856,-0.000256673,-0.00028326,-0.000310545,-0.000338451,-0.000366884,-0.000395754,-0.000425008,-0.000454461,-0.000484096,-0.000513851,-0.000543649,-0.000573458,-0.000603121,-0.000632598,-0.000661867,-0.000690872,-0.000719556,-0.0007479,-0.000775764,-0.000803118,-0.000829976,-0.000856282,-0.00088199,-0.000907082,-0.00093145,-0.000955052,-0.000977937,-0.00100004,-0.00102132,-0.00104175,-0.00106128,-0.00107982,-0.00109746,-0.00111412,-0.00112977,-0.00114436,-0.00115789,-0.00117026,-0.00118155,-0.0011917,-0.00120067,-0.00120839,-0.00121493,-0.00122023,-0.00122421,-0.00122694,-0.00122837,-0.00122841,-0.00122719,-0.00122462,-0.00122068,-0.00121538,-0.0012087,-0.00120064,-0.00119112,-0.00118031,-0.00116814,-0.00115461,-0.00113976,-0.00112356,-0.00110601,-0.00108709,-0.00106698,-0.00104564,-0.00102311,-0.0009995,-0.000974714,-0.000948832,-0.000921847,-0.000893955,-0.000865176,-0.000835569,-0.000805314,-0.000774296,-0.000742635,-0.000710389,-0.000677717,-0.000644706,-0.000611448,-0.000578043,-0.00054471,-0.000511361,-0.000478126,-0.000445141,-0.000412536,-0.000380426,-0.000348936,-0.000318183,-0.000288382,-0.000259499,-0.000231701,-0.000205044,-0.000179668,-0.000155701,-0.000133231,-0.000112363,-9.32405e-05,-7.58603e-05,-6.03522e-05,-4.66329e-05,-3.47973e-05,-2.48207e-05,-1.66941e-05,-1.03528e-05,-5.69404e-06,-2.55805e-06,-8.3448e-07,-9.86643e-08,-0
-0,-4.05436e-07,-2.03229e-06,-5.1946e-06,-1.01288e-05,-1.69716e-05,-2.58175e-05,-3.67235e-05,-4.97092e-05,-6.47651e-05,-8.18107e-05,-0.000100785,-0.000121608,-0.000144193,-0.000168428,-0.00019422,-0.000221404,-0.000249878,-0.000279539,-0.000310268,-0.000341965,-0.000374455,-0.000407665,-0.000441488,-0.000475826,-0.000510567,-0.000545634,-0.000580868,-0.000616234,-0.000651649,-0.00068703,-0.000722329,-0.000757362,-0.000792141,-0.000826604,-0.000860687,-0.000894316,-0.000927468,-0.000959969,-0.00099187,-0.00102312,-0.00105365,-0.00108342,-0.00111239,-0.00114043,-0.0011676,-0.00119384,-0.0012191,-0.00124334,-0.00126652,-0.00128853,-0.00130946,-0.00132922,-0.00134778,-0.00136509,-0.0013811,-0.00139577,-0.00140915,-0.00142116,-0.00143177,-0.00144095,-0.00144862,-0.00145487,-0.00145956,-0.00146277,-0.00146442,-0.0014645,-0.00146293,-0.00145983,-0.00145512,-0.00144878,-0.00144082,-0.00143122,-0.00141998,-0.00140703,-0.00139254,-0.00137644,-0.00135879,-0.00133952,-0.00131868,-0.00129631,-0.00127235,-0.001247,-0.00122025,-0.0011922,-0.00116277,-0.00113206,-0.00110012,-0.00106699,-0.00103283,-0.000997702,-0.000961785,-0.000924976,-0.000887415,-0.000849218,-0.000810453,-0.000771287,-0.000731832,-0.000692199,-0.000652625,-0.000613042,-0.000573609,-0.000534473,-0.000495762,-0.000457633,-0.000420222,-0.000383674,-0.000348225,-0.000313853,-0.000280718,-0.000248997,-0.000218743,-0.000190123,-0.000163257,-0.000138256,-0.000115286,-9.43453e-05,-7.55127e-05,-5.8912e-05,-4.44434e-05,-3.21736e-05,-2.2065e-05,-1.4057e-05,-8.05419e-06,-3.88902e-06,-1.35333e-06,-2.31109e-07,-0
-0,-6.04768e-07,-2.80607e-06,-6.90363e-06,-1.31156e-05,-2.16067e-05,-3.24441e-05,-4.56749e-05,-6.13057e-05,-7.93029e-05,-9.96269e-05,-0.000122159,-0.000146818,-0.000173491,-0.00020206,-0.000232393,-0.000264372,-0.000297824,-0.000332635,-0.000368668,-0.000405784,-0.000443882,-0.000482774,-0.000522376,-0.00056256,-0.000603212,-0.000644203,-0.000685462,-0.000726831,-0.000768249,-0.00080962,-0.000850854,-0.000891869,-0.00093253,-0.000972824,-0.00101266,-0.00105198,-0.00109069,-0.00112873,-0.00116602,-0.00120254,-0.00123822,-0.00127301,-0.00130684,-0.00133962,-0.00137137,-0.00140202,-0.00143153,-0.00145984,-0.0014869,-0.00151261,-0.00153704,-0.00156011,-0.00158176,-0.00160196,-0.00162065,-0.00163774,-0.00165333,-0.00166734,-0.0016797,-0.00169038,-0.00169935,-0.00170655,-0.00171199,-0.00171569,-0.00171759,-0.00171764,-0.00171583,-0.0017121,-0.00170654,-0.00169908,-0.00168975,-0.0016785,-0.00166534,-0.00165028,-0.00163324,-0.0016144,-0.00159372,-0.0015712,-0.00154685,-0.0015207,-0.0014928,-0.00146313,-0.00143186,-0.00139907,-0.00136469,-0.00132882,-0.00129153,-0.00125292,-0.00121301,-0.00117199,-0.00113002,-0.00108704,-0.00104319,-0.000998596,-0.00095339,-0.000907666,-0.000861594,-0.000815311,-0.000769082,-0.00072284,-0.000676778,-0.000631058,-0.000585852,-0.000541289,-0.000497548,-0.000454794,-0.0004133,-0.000373046,-0.000334215,-0.000296973,-0.000261513,-0.000227886,-0.00019628,-0.000166807,-0.000139669,-0.000114862,-9.24778e-05,-7.25783e-05,-5.52834e-05,-4.04711e-05,-2.81583e-05,-1.82969e-05,-1.07673e-05,-5.43376e-06,-2.06216e-06,-3.58414e-07,-0
-0,-8.2871e-07,-3.67512e-06,-8.81838e-06,-1.6469e-05,-2.67604e-05,-3.97914e-05,-5.55734e-05,-7.4095e-05,-9.53158e-05,-0.000119156,-0.000145547,-0.00017434,-0.000205416,-0.000238643,-0.000273865,-0.000310932,-0.000349724,-0.000390032,-0.000431731,-0.000474653,-0.000518652,-0.000563631,-0.000609372,-0.00065578,-0.000702713,-0.000750025,-0.000797611,-0.000845392,-0.00089318,-0.000940913,-0.000988478,-0.00103575,-0.0010827,-0.00112917,-0.00117512,-0.00122046,-0.0012651,-0.00130894,-0.00135198,-0.00139408,-0.00143522,-0.00147532,-0.00151432,-0.00155211,-0.00158871,-0.00162404,-0.00165804,-0.00169066,-0.00172184,-0.00175147,-0.00177959,-0.00180616,-0.0018311,-0.00185435,-0.00187588,-0.00189556,-0.00191346,-0.00192957,-0.00194378,-0.00195606,-0.00196636,-0.00197466,-0.00198083,-0.00198505,-0.00198719,-0.00198721,-0.0019851,-0.00198082,-0.0019743,-0.00196566,-0.00195485,-0.00194185,-0.00192666,-0.00190927,-0.0018897,-0.00186788,-0.00184401,-0.00181802,-0.00178993,-0.00175979,-0.00172764,-0.00169352,-0.00165743,-0.00161962,-0.00157999,-0.00153865,-0.0014957,-0.00145121,-0.00140531,-0.00135803,-0.00130966,-0.00126013,-0.00120961,-0.00115824,-0.00110616,-0.00105352,-0.00100046,-0.000947128,-0.000893836,-0.000840531,-0.000787431,-0.000734722,-0.000682584,-0.000631219,-0.00058076,-0.000531409,-0.000483483,-0.00043696,-0.000392061,-0.000348963,-0.000307842,-0.00026891,-0.000232217,-0.000197963,-0.000166338,-0.000137361,-0.000111137,-8.77396e-05,-6.72211e-05,-4.96728e-05,-3.49548e-05,-2.30391e-05,-1.38311e-05,-7.19333e-06,-2.88033e-06,-6.06207e-07,-0
-0,-1.0606e-06,-4.61604e-06,-1.09179e-05,-2.01483e-05,-3.24299e-05,-4.78298e-05,-6.63827e-05,-8.80391e-05,-0.000112738,-0.000140388,-0.000170883,-0.000204117,-0.000239904,-0.000278102,-0.00031854,-0.000361048,-0.000405457,-0.000451631,-0.000499334,-0.000548414,-0.000598704,-0.000650047,-0.000702323,-0.000755305,-0.000808876,-0.000862876,-0.00091717,-0.000971642,-0.0010262,-0.00108064,-0.00113488,-0.0011888,-0.0012423,-0.00129533,-0.00134772,-0.0013994,-0.0014503,-0.00150027,-0.0015493,-0.00159732,-0.00164421,-0.00168991,-0.00173435,-0.00177741,-0.00181911,-0.00185936,-0.0018981,-0.00193526,-0.00197077,-0.00200452,-0.00203655,-0.00206678,-0.00209516,-0.00212163,-0.00214612,-0.00216853,-0.00218893,-0.00220718,-0.00222334,-0.00223728,-0.00224898,-0.00225841,-0.00226545,-0.00227014,-0.00227253,-0.00227251,-0.00227005,-0.00226514,-0.00225775,-0.00224778,-0.00223542,-0.00222057,-0.00220322,-0.00218338,-0.00216105,-0.00213626,-0.00210896,-0.00207931,-0.00204729,-0.00201293,-0.00197629,-0.00193742,-0.00189638,-0.00185324,-0.00180808,-0.00176098,-0.00171205,-0.00166138,-0.00160909,-0.0015553,-0.00150019,-0.00144377,-0.00138622,-0.0013277,-0.00126838,-0.00120842,-0.00114799,-0.00108725,-0.00102652,-0.000965768,-0.00090524,-0.000845151,-0.000785702,-0.0007271,-0.000669571,-0.000613258,-0.000558526,-0.000505377,-0.000454039,-0.000404733,-0.000357646,-0.000312959,-0.000270909,-0.000231537,-0.000195145,-0.000161704,-0.000131361,-0.000104199,-8.02823e-05,-5.96396e-05,-4.23355e-05,-2.81926e-05,-1.71466e-05,-9.07412e-06,-3.72698e-06,-8.23071e-07,-0
-0,-1.32743e-06,-5.64211e-06,-1.32035e-05,-2.41542e-05,-3.85931e-05,-5.65663e-05,-7.80778e-05,-0.000103106,-0.000131534,-0.00016326,-0.000198155,-0.000236078,-0.00027689,-0.000320365,-0.000366333,-0.0004146,-0.000464982,-0.000517292,-0.000571363,-0.000626938,-0.000683853,-0.00074194,-0.000801026,-0.000860962,-0.000921512,-0.000982539,-0.00104389,-0.00110543,-0.00116702,-0.00122854,-0.00128981,-0.00135069,-0.00141111,-0.00147095,-0.00153012,-0.00158847,-0.00164592,-0.00170234,-0.00175768,-0.00181185,-0.00186479,-0.00191636,-0.00196651,-0.00201511,-0.00206215,-0.00210756,-0.00215125,-0.00219317,-0.00223322,-0.00227129,-0.00230742,-0.00234151,-0.00237348,-0.00240332,-0.00243092,-0.00245618,-0.00247916,-0.00249976,-0.00251789,-0.00253358,-0.00254674,-0.00255733,-0.00256524,-0.00257055,-0.00257313,-0.00257306,-0.00257025,-0.00256467,-0.00255629,-0.00254508,-0.00253103,-0.00251423,-0.00249462,-0.0024722,-0.00244699,-0.002419,-0.00238826,-0.00235472,-0.00231857,-0.00227978,-0.00223843,-0.00219457,-0.00214827,-0.00209966,-0.00204868,-0.00199554,-0.00194033,-0.00188317,-0.00182419,-0.00176351,-0.00170138,-0.00163774,-0.00157281,-0.0015068,-0.00143987,-0.00137223,-0.00130405,-0.00123552,-0.001167,-0.00109843,-0.00103011,-0.000962257,-0.00089512,-0.000828919,-0.000763889,-0.000700277,-0.00063838,-0.000578241,-0.000520122,-0.000464254,-0.000410861,-0.000360141,-0.000312292,-0.000267549,-0.000226068,-0.000187888,-0.000153156,-0.000121971,-9.44187e-05,-7.05295e-05,-5.03091e-05,-3.37898e-05,-2.07479e-05,-1.1126e-05,-4.6518e-06,-1.0589e-06,-0
-0,-1.61642e-06,-6.76763e-06,-1.56675e-05,-2.84725e-05,-4.52302e-05,-6.5963e-05,-9.06559e-05,-0.000119248,-0.00015166,-0.00018772,-0.000227288,-0.000270203,-0.000316282,-0.000365355,-0.000417158,-0.000471498,-0.000528168,-0.000586961,-0.000647669,-0.000710096,-0.000773968,-0.000839128,-0.00090538,-0.000972539,-0.00104044,-0.00110882,-0.00117756,-0.0012465,-0.00131548,-0.00138435,-0.00145298,-0.00152116,-0.0015888,-0.00165578,-0.001722,-0.00178734,-0.00185164,-0.00191479,-0.00197672,-0.00203735,-0.00209657,-0.00215429,-0.0022104,-0.00226477,-0.00231741,-0.00236821,-0.00241708,-0.00246395,-0.00250875,-0.00255133,-0.00259173,-0.00262985,-0.00266562,-0.00269893,-0.00272978,-0.00275801,-0.00278369,-0.0028067,-0.00282699,-0.00284445,-0.00285914,-0.00287094,-0.00287976,-0.00288567,-0.00288858,-0.00288839,-0.0028852,-0.00287892,-0.00286952,-0.00285694,-0.00284126,-0.00282237,-0.00280039,-0.00277528,-0.00274706,-0.00271572,-0.00268131,-0.00264386,-0.00260335,-0.00255995,-0.00251367,-0.0024646,-0.0024128,-0.00235841,-0.00230144,-0.00224198,-0.00218022,-0.00211628,-0.0020503,-0.00198243,-0.00191291,-0.00184175,-0.00176914,-0.00169529,-0.00162042,-0.00154473,-0.00146844,-0.00139176,-0.00131506,-0.00123833,-0.00116185,-0.00108588,-0.00101068,-0.000936518,-0.000863641,-0.000792292,-0.000722914,-0.000655436,-0.000590194,-0.000527428,-0.000467397,-0.000410317,-0.000356407,-0.000305866,-0.000259055,-0.000215851,-0.000176458,-0.000141013,-0.000109582,-8.22346e-05,-5.8978e-05,-3.978e-05,-2.46334e-05,-1.33264e-05,-5.64778e-06,-1.31629e-06,-0
-0,-1.93223e-06,-7.98163e-06,-1.83289e-05,-3.30874e-05,-5.23207e-05,-7.59968e-05,-0.000104073,-0.000136467,-0.000173061,-0.000213719,-0.000258225,-0.000306406,-0.00035806,-0.00041297,-0.00047093,-0.000531645,-0.000594912,-0.000660503,-0.000728187,-0.000797723,-0.000868906,-0.000941457,-0.00101521,-0.00108994,-0.00116544,-0.00124154,-0.00131798,-0.00139463,-0.00147132,-0.00154787,-0.00162413,-0.00169994,-0.0017751,-0.00184954,-0.00192311,-0.00199568,-0.00206715,-0.0021373,-0.0022061,-0.00227344,-0.00233922,-0.00240332,-0.00246564,-0.00252603,-0.00258448,-0.00264089,-0.00269517,-0.00274721,-0.00279692,-0.0028442,-0.00288905,-0.00293137,-0.00297106,-0.00300806,-0.00304225,-0.00307358,-0.00310206,-0.00312759,-0.00315009,-0.0031695,-0.00318571,-0.00319879,-0.00320855,-0.00321507,-0.00321828,-0.00321811,-0.00321446,-0.00320745,-0.00319698,-0.00318299,-0.00316555,-0.00314462,-0.00312014,-0.00309223,-0.00306085,-0.00302605,-0.00298782,-0.00294622,-0.0029013,-0.00285306,-0.00280166,-0.00274716,-0.00268964,-0.00262924,-0.00256598,-0.00250001,-0.00243142,-0.00236042,-0.00228715,-0.00221179,-0.00213458,-0.00205555,-0.00197493,-0.00189294,-0.00180978,-0.00172572,-0.00164097,-0.00155579,-0.00147055,-0.00138527,-0.00130029,-0.00121584,-0.00113224,-0.00104976,-0.000968675,-0.000889277,-0.000811974,-0.000736856,-0.000664139,-0.000594157,-0.000527152,-0.000463402,-0.000403125,-0.000346548,-0.000293996,-0.000245532,-0.000201226,-0.00016126,-0.000125735,-9.47184e-05,-6.82363e-05,-4.62736e-05,-2.87571e-05,-1.56869e-05,-6.70967e-06,-1.58343e-06,-0
-0,-2.27191e-06,-9.2772e-06,-2.11638e-05,-3.80116e-05,-5.98406e-05,-8.66356e-05,-0.00011829,-0.000154702,-0.000195726,-0.000241184,-0.0002909,-0.000344615,-0.000402122,-0.000463177,-0.000527529,-0.000594944,-0.000665108,-0.000737803,-0.00081277,-0.000889751,-0.000968494,-0.00104879,-0.00113034,-0.00121296,-0.00129641,-0.00138047,-0.00146497,-0.00154964,-0.00163434,-0.00171888,-0.00180308,-0.00188676,-0.00196978,-0.00205195,-0.00213316,-0.00221327,-0.00229212,-0.00236957,-0.0024455,-0.00251982,-0.0025924,-0.00266313,-0.00273189,-0.00279853,-0.00286302,-0.00292525,-0.00298513,-0.00304254,-0.00309739,-0.00314952,-0.00319899,-0.00324566,-0.00328943,-0.00333024,-0.00336797,-0.00340247,-0.00343387,-0.00346201,-0.00348681,-0.00350821,-0.00352612,-0.00354046,-0.0035512,-0.00355837,-0.00356188,-0.00356168,-0.00355771,-0.00354988,-0.0035383,-0.00352284,-0.00350359,-0.00348049,-0.00345354,-0.00342268,-0.00338805,-0.00334963,-0.00330744,-0.00326156,-0.003212,-0.00315884,-0.00310211,-0.00304197,-0.00297851,-0.00291186,-0.00284208,-0.0027693,-0.00269368,-0.00261535,-0.00253452,-0.00245136,-0.00236616,-0.00227896,-0.00219001,-0.00209954,-0.0020078,-0.00191501,-0.00182147,-0.00172743,-0.00163331,-0.00153915,-0.00144527,-0.00135203,-0.00125966,-0.00116851,-0.00107888,-0.00099107,-0.000905547,-0.000822352,-0.000741877,-0.000664333,-0.000590056,-0.000519311,-0.000452363,-0.000389458,-0.000330948,-0.000276839,-0.000227398,-0.000182679,-0.000142837,-0.000107947,-7.806e-05,-5.31682e-05,-3.32181e-05,-1.81702e-05,-7.832e-06,-1.87162e-06,-0