0,0,0,0,0,0,0,0,0,0,0,0,0,0,0,0,0,0,0,0,0,0,0,0,0,0,0,0,0,0,0,0,0,0,0,0,0,0,0,0,0,0,0,0,0,0,0,0,0,0,0,0,0,0,0,0,0,0,0,0,0,0,0,0,0,0,0,0,0,0,0,0,0,0,0,0,0,0,0,0,0,0,0,0,0,0,0,0,0,0,0,0,0,0,0,0,0,0,0,0,0,0,0,0,0,0,0,0,0,0,0,0,0,0,0,0,0,0,0,0,0,0,0,0,0,0,0,0
0,3.8926e-06,1.11646e-05,1.7926e-05,2.15719e-05,2.04503e-05,1.25161e-05,-2.76264e-06,-2.46355e-05,-5.25812e-05,-8.65596e-05,-0.00012788,-0.000175556,-0.000228205,-0.000285689,-0.00034689,-0.000412131,-0.000483083,-0.000557397,-0.000634078,-0.000712141,-0.00079257,-0.000877565,-0.00096345,-0.00104996,-0.00113744,-0.00122407,-0.00131215,-0.00140373,-0.00149366,-0.0015828,-0.00167159,-0.00175782,-0.00184497,-0.001935,-0.00202123,-0.00210573,-0.00218913,-0.00226866,-0.00234897,-0.00243136,-0.00250856,-0.00258332,-0.00265646,-0.00272493,-0.00279386,-0.00286377,-0.00292794,-0.0029891,-0.00304811,-0.00310217,-0.0031559,-0.00320897,-0.00325675,-0.00330108,-0.00334258,-0.00337933,-0.00341439,-0.00344658,-0.00347481,-0.00349934,-0.00352028,-0.00353758,-0.00355095,-0.00356045,-0.00356402,-0.00356567,-0.00356383,-0.00355756,-0.00354735,-0.00353439,-0.00351558,-0.00348757,-0.0034598,-0.00342899,-0.0033936,-0.00335428,-0.00331387,-0.00326617,-0.003207,-0.00314941,-0.00308958,-0.00302573,-0.00295857,-0.0028922,-0.00281849,-0.00273279,-0.00264916,-0.00256437,-0.00247676,-0.00238721,-0.00230022,-0.00220751,-0.0021048,-0.00200408,-0.00190347,-0.001802,-0.00170041,-0.0015982,-0.00150087,-0.00140114,-0.00129648,-0.00119375,-0.00109322,-0.000994523,-0.000898483,-0.000804937,-0.000717363,-0.000632228,-0.000549196,-0.000469042,-0.000393385,-0.000322851,-0.000257698,-0.000198413,-0.000145648,-0.000100044,-6.33311e-05,-3.14435e-05,-5.46022e-06,1.32137e-05,2.50921e-05,3.01719e-05,2.92199e-05,2.63549e-05,1.88991e-05,4.80495e-06,0
0,5.91888e-06,1.4295e-05,1.9855e-05,1.88211e-05,9.03309e-06,-1.13102e-05,-4.46369e-05,-9.08371e-05,-0.000149168,-0.000218309,-0.000298584,-0.000391297,-0.000494375,-0.000606687,-0.000727339,-0.000854575,-0.000989212,-0.00113288,-0.00128173,-0.00143547,-0.00159116,-0.00175188,-0.00191852,-0.0020865,-0.00225648,-0.00242733,-0.002597,-0.00276925,-0.00294521,-0.00311836,-0.00329115,-0.00346217,-0.00362919,-0.00379765,-0.00396779,-0.00413216,-0.00429446,-0.00445318,-0.00460605,-0.00475948,-0.00491277,-0.0050584,-0.00520055,-0.00533785,-0.00546827,-0.00559799,-0.00572558,-0.00584483,-0.00595926,-0.00606782,-0.00616913,-0.00626778,-0.00636195,-0.00644825,-0.00652841,-0.00660183,-0.00666818,-0.00672916,-0.00678293,-0.00683022,-0.00687018,-0.00690328,-0.00692831,-0.00694761,-0.00695751,-0.00695698,-0.00695207,-0.00693884,-0.00691865,-0.0068893,-0.00685629,-0.00681012,-0.00675079,-0.00668902,-0.00661882,-0.00654211,-0.00645642,-0.0063692,-0.00626697,-0.00615015,-0.00603214,-0.00590667,-0.00577593,-0.00563779,-0.00550038,-0.0053489,-0.00518366,-0.00501817,-0.00484722,-0.00467319,-0.00449479,-0.00431935,-0.00413384,-0.00393843,-0.00374363,-0.00354691,-0.00334995,-0.00315239,-0.00295584,-0.0027644,-0.00257067,-0.00237413,-0.00218083,-0.00199046,-0.0018047,-0.00162404,-0.00144993,-0.00128411,-0.00112496,-0.000972883,-0.000827386,-0.000691457,-0.000564648,-0.000449213,-0.000345628,-0.000252781,-0.00017444,-0.000112214,-5.96117e-05,-2.01848e-05,7.83409e-06,2.37597e-05,2.91318e-05,2.52413e-05,2.1163e-05,1.08358e-05,0
0,5.61651e-06,1.12525e-05,1.04661e-05,-4.54218e-07,-2.44065e-05,-6.2679e-05,-0.000116783,-0.000188958,-0.00027846,-0.00038406,-0.000504323,-0.000639367,-0.000790775,-0.000955293,-0.00113206,-0.00131955,-0.00151577,-0.00172182,-0.00193878,-0.00216227,-0.00239164,-0.00262419,-0.00286266,-0.00310837,-0.00335489,-0.00360411,-0.00385385,-0.0041024,-0.00435357,-0.00460809,-0.00485871,-0.00510833,-0.00535524,-0.00559713,-0.00583959,-0.00608252,-0.00631778,-0.00654961,-0.00677636,-0.0069957,-0.00721367,-0.00742967,-0.00763564,-0.0078361,-0.00802984,-0.00821468,-0.00839593,-0.00857261,-0.00873836,-0.00889659,-0.00904681,-0.00918734,-0.00932148,-0.00944803,-0.00956404,-0.00967061,-0.00976806,-0.00985566,-0.00993346,-0.0100004,-0.010058,-0.0101051,-0.0101411,-0.0101668,-0.0101831,-0.010186,-0.0101734,-0.0101543,-0.0101227,-0.0100801,-0.0100258,-0.00996384,-0.00988555,-0.0097885,-0.00968698,-0.00957267,-0.00944835,-0.00931215,-0.00917062,-0.00901213,-0.00883385,-0.00865267,-0.00846009,-0.00825965,-0.00804898,-0.00783599,-0.0076084,-0.00736341,-0.0071171,-0.00686254,-0.0066039,-0.00633866,-0.00607454,-0.00580168,-0.00551746,-0.00523404,-0.00494788,-0.00466189,-0.00437613,-0.00409107,-0.00381159,-0.00353305,-0.0032537,-0.00297965,-0.00271069,-0.00244917,-0.00219616,-0.00195209,-0.00171887,-0.00149781,-0.00128868,-0.00109071,-0.000906847,-0.00073759,-0.000584865,-0.000448859,-0.000327912,-0.000226772,-0.000148823,-8.43912e-05,-3.78341e-05,-6.51771e-06,9.83164e-06,1.35584e-05,8.86693e-06,5.90265e-06,0
0,2.8597e-06,2.78918e-06,-7.51237e-06,-3.21869e-05,-7.34449e-05,-0.000133226,-0.000212087,-0.000311317,-0.000432582,-0.000574459,-0.000735382,-0.000913928,-0.00111023,-0.00132518,-0.00155549,-0.00179934,-0.00205601,-0.00232245,-0.00260058,-0.00289053,-0.00318753,-0.003491,-0.00379831,-0.00411202,-0.00443272,-0.00475443,-0.00507778,-0.0054024,-0.00572454,-0.00604957,-0.00637628,-0.00669855,-0.00701808,-0.00733478,-0.0076447,-0.00795438,-0.00826213,-0.00856118,-0.00885456,-0.00914209,-0.00941989,-0.00969475,-0.00996453,-0.0102229,-0.0104733,-0.0107154,-0.0109461,-0.0111707,-0.0113871,-0.0115909,-0.0117846,-0.0119679,-0.0121389,-0.0123,-0.0124498,-0.0125867,-0.0127118,-0.0128246,-0.0129248,-0.0130111,-0.0130827,-0.0131424,-0.0131879,-0.0132198,-0.0132379,-0.0132435,-0.0132312,-0.0132004,-0.0131589,-0.0131023,-0.0130309,-0.0129453,-0.0128482,-0.0127309,-0.0125923,-0.0124445,-0.0122821,-0.0121053,-0.0119149,-0.0117156,-0.0114963,-0.0112558,-0.0110078,-0.0107475,-0.010475,-0.0101917,-0.00990305,-0.00959831,-0.00927639,-0.00894933,-0.00861473,-0.00827244,-0.0079243,-0.00757559,-0.00721856,-0.00685179,-0.00648459,-0.00611579,-0.00574757,-0.00538021,-0.00501461,-0.00465592,-0.00430036,-0.00394835,-0.0036027,-0.00326567,-0.00293937,-0.00262385,-0.00232089,-0.00203225,-0.00176022,-0.00150552,-0.00126679,-0.00104608,-0.000846109,-0.000665794,-0.000507601,-0.000367736,-0.000253401,-0.000165927,-9.61743e-05,-4.70321e-05,-1.51729e-05,-1.04861e-07,3.51385e-06,-3.57118e-08,0
0,-8.93145e-07,-9.6297e-06,-3.15319e-05,-7.19083e-05,-0.000133075,-0.000216061,-0.000322198,-0.000451212,-0.000604186,-0.000782338,-0.00098337,-0.0012059,-0.00144757,-0.00170933,-0.00199118,-0.00228941,-0.00260221,-0.00292871,-0.00326593,-0.00361564,-0.00397759,-0.00434643,-0.0047219,-0.00510074,-0.0054868,-0.00587894,-0.00627164,-0.00666518,-0.00705937,-0.00745035,-0.00784341,-0.00823713,-0.0086248,-0.00900866,-0.00938829,-0.00975991,-0.0101299,-0.0104959,-0.0108515,-0.0111996,-0.0115402,-0.0118693,-0.0121934,-0.0125095,-0.0128128,-0.0131055,-0.0133878,-0.0136565,-0.0139165,-0.0141647,-0.014399,-0.0146201,-0.0148283,-0.0150216,-0.0152018,-0.0153666,-0.0155174,-0.0156529,-0.015773,-0.0158777,-0.015965,-0.0160336,-0.0160875,-0.0161251,-0.0161455,-0.0161483,-0.0161366,-0.0161021,-0.0160463,-0.0159759,-0.0158888,-0.0157833,-0.0156595,-0.0155229,-0.0153608,-0.0151758,-0.0149772,-0.0147628,-0.0145308,-0.0142818,-0.0140228,-0.0137394,-0.0134343,-0.013118,-0.0127883,-0.0124445,-0.0120875,-0.0117245,-0.0113429,-0.0109448,-0.0105395,-0.010126,-0.0097045,-0.00927629,-0.0088481,-0.008411,-0.00796654,-0.007521,-0.00707626,-0.00663179,-0.00619014,-0.00575204,-0.00532255,-0.00489882,-0.00448228,-0.00407444,-0.00367948,-0.00329696,-0.00292928,-0.00257784,-0.0022445,-0.00193176,-0.00164198,-0.0013719,-0.00112512,-0.000901942,-0.000703752,-0.000530867,-0.000379847,-0.000258602,-0.000167413,-9.60515e-05,-4.68091e-05,-1.69018e-05,-2.34176e-06,1.31105e-06,0
0,-4.89839e-06,-2.36576e-05,-5.9641e-05,-0.000116782,-0.000198925,-0.000306947,-0.000441153,-0.000601935,-0.000788709,-0.0010019,-0.00124259,-0.00150766,-0.00179561,-0.00210384,-0.00243327,-0.00278396,-0.00315103,-0.00353372,-0.00393,-0.00433734,-0.00475713,-0.00518914,-0.0056276,-0.00607255,-0.00652016,-0.00697485,-0.0074348,-0.00789388,-0.0083537,-0.00881242,-0.00926747,-0.00972333,-0.0101783,-0.0106259,-0.0110685,-0.011505,-0.0119323,-0.012356,-0.0127738,-0.0131796,-0.0135763,-0.0139629,-0.0143366,-0.0147026,-0.0150583,-0.0153994,-0.0157278,-0.016043,-0.0163428,-0.0166303,-0.0169037,-0.017161,-0.0174026,-0.0176283,-0.0178369,-0.0180283,-0.0182019,-0.0183589,-0.0184977,-0.0186181,-0.0187207,-0.0188018,-0.0188603,-0.0189027,-0.0189252,-0.0189277,-0.0189091,-0.0188735,-0.0188118,-0.0187238,-0.0186206,-0.0184962,-0.0183518,-0.0181853,-0.0180036,-0.0177939,-0.0175569,-0.0173055,-0.0170341,-0.0167443,-0.0164342,-0.0161123,-0.0157645,-0.0153922,-0.0150075,-0.0146064,-0.0141914,-0.0137611,-0.0133238,-0.012868,-0.0123949,-0.0119135,-0.011423,-0.0109255,-0.0104213,-0.00991712,-0.0094056,-0.00888823,-0.00837118,-0.00785448,-0.00734091,-0.00683163,-0.00632874,-0.00583576,-0.00535266,-0.0048797,-0.00441981,-0.00397403,-0.00354468,-0.00313395,-0.00274368,-0.00237408,-0.00203032,-0.00171428,-0.00142243,-0.00115698,-0.000918617,-0.000709269,-0.000528543,-0.00037194,-0.000248352,-0.000157206,-8.75007e-05,-4.16851e-05,-1.44241e-05,-2.20845e-06,0
0,-8.5099e-06,-3.71315e-05,-8.86386e-05,-0.000164838,-0.000268277,-0.000401913,-0.000565174,-0.000758037,-0.000980105,-0.00122995,-0.00150813,-0.00181505,-0.00214746,-0.00250336,-0.00288024,-0.00327862,-0.00369872,-0.004135,-0.00458679,-0.00505218,-0.00552763,-0.00601578,-0.0065156,-0.00702112,-0.00753234,-0.00804546,-0.0085642,-0.00908793,-0.00960916,-0.0101303,-0.0106492,-0.0111627,-0.0116758,-0.0121866,-0.0126884,-0.0131837,-0.0136713,-0.0141477,-0.0146188,-0.015082,-0.0155314,-0.0159698,-0.0163961,-0.0168073,-0.0172083,-0.0175969,-0.0179687,-0.0183257,-0.0186668,-0.0189902,-0.0192987,-0.0195901,-0.0198633,-0.0201182,-0.0203543,-0.0205707,-0.0207672,-0.0209423,-0.0210986,-0.0212338,-0.0213476,-0.0214415,-0.0215093,-0.0215524,-0.0215765,-0.0215777,-0.0215559,-0.0215104,-0.0214447,-0.0213498,-0.0212259,-0.0210842,-0.0209182,-0.0207293,-0.0205164,-0.0202849,-0.0200237,-0.0197324,-0.0194246,-0.0190942,-0.018743,-0.0183707,-0.0179832,-0.0175699,-0.0171301,-0.0166762,-0.0162049,-0.0157181,-0.015216,-0.014705,-0.0141769,-0.0136307,-0.0130764,-0.0125129,-0.0119425,-0.0113667,-0.0107905,-0.0102096,-0.00962552,-0.00904166,-0.00846025,-0.0078841,-0.00731444,-0.00675388,-0.00620527,-0.00567003,-0.00515034,-0.00464489,-0.00415753,-0.00368992,-0.00324469,-0.00282414,-0.00242694,-0.00205999,-0.00172672,-0.00141917,-0.00114203,-0.000895853,-0.000680946,-0.000497938,-0.00034076,-0.000219087,-0.000131379,-6.71751e-05,-2.69652e-05,-5.88585e-06,0
0,-1.12818e-05,-4.9618e-05,-0.000116589,-0.000213124,-0.000340123,-0.00049882,-0.000691552,-0.000916784,-0.00117361,-0.00146169,-0.00177841,-0.00212478,-0.00250074,-0.00290217,-0.00332767,-0.00377368,-0.0042414,-0.00473032,-0.005235,-0.00575455,-0.00628727,-0.00682915,-0.00738315,-0.00794792,-0.00851695,-0.00909092,-0.00966549,-0.0102447,-0.0108274,-0.0114066,-0.0119838,-0.0125581,-0.0131247,-0.0136897,-0.0142506,-0.0148009,-0.015343,-0.0158758,-0.0163954,-0.0169075,-0.0174097,-0.0178966,-0.0183701,-0.0188295,-0.0192719,-0.0197015,-0.0201159,-0.020512,-0.0208906,-0.0212509,-0.0215917,-0.0219142,-0.0222167,-0.0224991,-0.0227605,-0.0230001,-0.0232186,-0.0234133,-0.0235833,-0.0237324,-0.0238576,-0.0239586,-0.0240368,-0.0240868,-0.0241081,-0.0241079,-0.0240821,-0.0240303,-0.0239525,-0.0238514,-0.0237191,-0.023555,-0.0233693,-0.0231579,-0.0229202,-0.022657,-0.0223724,-0.0220565,-0.0217091,-0.0213414,-0.0209501,-0.0205357,-0.0200991,-0.0196455,-0.0191656,-0.0186586,-0.0181352,-0.0175943,-0.0170366,-0.0164638,-0.0158816,-0.0152824,-0.0146666,-0.0140419,-0.0134089,-0.0127699,-0.0121266,-0.0114834,-0.0108391,-0.0101924,-0.00954779,-0.00890814,-0.00827582,-0.00765294,-0.00704193,-0.00644533,-0.00586628,-0.00530582,-0.00476305,-0.0042416,-0.00374412,-0.00327256,-0.00282899,-0.00241224,-0.00203032,-0.00168495,-0.00136832,-0.0010863,-0.000837335,-0.000622762,-0.000442192,-0.000289313,-0.000173681,-9.36098e-05,-3.97044e-05,-9.12326e-06,0
0,-1.52136e-05,-6.26052e-05,-0.000144488,-0.000261206,-0.000412516,-0.000598105,-0.000819071,-0.00107643,-0.00136835,-0.00169315,-0.00204998,-0.00243644,-0.00285271,-0.00329908,-0.00377038,-0.00426527,-0.00478013,-0.00531641,-0.00587314,-0.00644476,-0.00703019,-0.00762768,-0.00823351,-0.00885016,-0.00947652,-0.0101057,-0.0107383,-0.0113703,-0.0120059,-0.012643,-0.0132752,-0.0139039,-0.0145277,-0.015143,-0.0157543,-0.0163599,-0.016953,-0.0175361,-0.0181078,-0.0186652,-0.0192125,-0.0197476,-0.0202656,-0.020768,-0.0212542,-0.0217218,-0.0221737,-0.0226075,-0.0230214,-0.023415,-0.0237884,-0.0241403,-0.0244706,-0.0247778,-0.025063,-0.0253242,-0.0255617,-0.0257757,-0.0259627,-0.0261216,-0.0262574,-0.0263667,-0.0264486,-0.0265062,-0.0265325,-0.0265266,-0.0264969,-0.0264389,-0.0263524,-0.0262363,-0.0260965,-0.025922,-0.0257133,-0.0254804,-0.0252192,-0.02493,-0.0246119,-0.0242722,-0.0238988,-0.0234926,-0.0230638,-0.0226097,-0.0221313,-0.0216285,-0.0211085,-0.0205613,-0.0199874,-0.0193958,-0.0187859,-0.0181591,-0.0175169,-0.0168649,-0.0161971,-0.0155148,-0.0148235,-0.014125,-0.0134216,-0.012715,-0.0120103,-0.0113058,-0.0106026,-0.00990352,-0.00921213,-0.00853018,-0.0078607,-0.00720604,-0.00656893,-0.00595201,-0.00535814,-0.00478565,-0.00423768,-0.00371756,-0.00322669,-0.00276713,-0.00233841,-0.00194711,-0.00159534,-0.00127625,-0.000994551,-0.0007484,-0.000539159,-0.00036592,-0.000222436,-0.000118273,-5.14485e-05,-1.2398e-05,0
0,-1.95372e-05,-7.68598e-05,-0.00017289,-0.00030909,-0.000484077,-0.0006974,-0.00094746,-0.00123546,-0.00156184,-0.00192328,-0.00231873,-0.00274622,-0.00320354,-0.00369085,-0.00420752,-0.00474849,-0.00531196,-0.00589466,-0.00649819,-0.00712109,-0.00775705,-0.00840587,-0.00906523,-0.00973186,-0.0104082,-0.0110924,-0.0117778,-0.012465,-0.0131503,-0.0138378,-0.0145248,-0.0152051,-0.0158804,-0.0165487,-0.0172074,-0.0178601,-0.0185045,-0.0191352,-0.0197535,-0.0203588,-0.0209481,-0.0215249,-0.0220869,-0.0226301,-0.0231555,-0.0236625,-0.0241494,-0.0246175,-0.0250649,-0.0254901,-0.0258932,-0.0262736,-0.0266305,-0.0269626,-0.0272685,-0.0275502,-0.027806,-0.0280354,-0.0282391,-0.0284124,-0.0285548,-0.0286717,-0.0287591,-0.0288176,-0.0288493,-0.0288462,-0.0288085,-0.0287444,-0.0286494,-0.0285232,-0.028366,-0.0281825,-0.027962,-0.0277046,-0.0274214,-0.0271071,-0.0267628,-0.0263886,-0.0259904,-0.0255577,-0.0250904,-0.0245992,-0.0240811,-0.0235375,-0.0229689,-0.0223819,-0.0217676,-0.0211268,-0.0204681,-0.0197903,-0.0190964,-0.018387,-0.0176675,-0.0169342,-0.0161879,-0.0154336,-0.0146733,-0.0139099,-0.0131452,-0.0123832,-0.0116239,-0.0108696,-0.0101218,-0.00938437,-0.00865914,-0.00794972,-0.00725905,-0.00658682,-0.00593901,-0.00531871,-0.00472246,-0.00415532,-0.00361889,-0.00311548,-0.00264783,-0.00221176,-0.00181735,-0.00146494,-0.00114897,-0.0008725,-0.000634843,-0.000435944,-0.000275955,-0.000149068,-6.12604e-05,-1.56399e-05,0
0,-2.32952e-05,-9.12364e-05,-0.000202114,-0.000356004,-0.000554201,-0.000793959,-0.00107436,-0.00139364,-0.00175205,-0.00215025,-0.00258344,-0.00305061,-0.00354996,-0.00407804,-0.00463622,-0.00522264,-0.00583193,-0.00646298,-0.00711168,-0.00778032,-0.00846687,-0.00916447,-0.00987377,-0.0105922,-0.011316,-0.0120486,-0.0127867,-0.0135242,-0.0142622,-0.0149963,-0.0157311,-0.0164637,-0.0171872,-0.017904,-0.0186123,-0.0193089,-0.0199979,-0.0206763,-0.0213387,-0.0219872,-0.0226205,-0.0232361,-0.0238369,-0.0244202,-0.0249828,-0.0255257,-0.026048,-0.0265483,-0.0270268,-0.0274818,-0.0279131,-0.0283199,-0.0287015,-0.0290577,-0.0293858,-0.0296847,-0.0299579,-0.0302027,-0.0304185,-0.0306065,-0.0307607,-0.0308813,-0.0309738,-0.0310353,-0.0310651,-0.031066,-0.0310289,-0.0309548,-0.030852,-0.0307153,-0.0305465,-0.0303441,-0.0301129,-0.0298428,-0.0295338,-0.0291968,-0.0288265,-0.0284255,-0.027993,-0.0275341,-0.0270401,-0.0265104,-0.0259554,-0.0253725,-0.0247636,-0.0241294,-0.0234752,-0.0227944,-0.0220876,-0.0213625,-0.020619,-0.0198595,-0.0190853,-0.0183011,-0.0175052,-0.016698,-0.0158843,-0.0150665,-0.0142476,-0.0134289,-0.0126144,-0.0118058,-0.0110056,-0.0102148,-0.00943687,-0.00867481,-0.00793232,-0.00721025,-0.00650962,-0.00583751,-0.00519715,-0.00458372,-0.00400362,-0.00345721,-0.00294818,-0.00247662,-0.00203998,-0.00164754,-0.00130087,-0.000993796,-0.000727982,-0.000504447,-0.000322154,-0.000182608,-7.79575e-05,-1.64941e-05,0
0,-2.68779e-05,-0.000104319,-0.00023011,-0.000402599,-0.000621589,-0.000887344,-0.00119697,-0.0015485,-0.00193997,-0.00237141,-0.00284237,-0.00334847,-0.00388769,-0.00445863,-0.00505742,-0.00568508,-0.00634021,-0.0070163,-0.00771287,-0.00842566,-0.00915654,-0.00990388,-0.0106606,-0.0114271,-0.0122013,-0.0129788,-0.0137632,-0.0145516,-0.0153372,-0.0161216,-0.0169005,-0.0176778,-0.0184508,-0.0192132,-0.0199668,-0.0207102,-0.0214399,-0.0221598,-0.0228667,-0.0235562,-0.0242295,-0.0248858,-0.0255223,-0.0261415,-0.0267406,-0.0273176,-0.0278726,-0.0284048,-0.0289129,-0.0293964,-0.0298536,-0.0302857,-0.0306908,-0.0310683,-0.0314184,-0.031737,-0.0320241,-0.0322837,-0.0325122,-0.0327092,-0.0328765,-0.0330071,-0.0331004,-0.0331649,-0.0331955,-0.033192,-0.0331576,-0.0330826,-0.0329679,-0.0328216,-0.0326409,-0.0324252,-0.0321742,-0.0318922,-0.0315695,-0.0312064,-0.0308119,-0.0303847,-0.0299245,-0.0294314,-0.0289109,-0.028354,-0.0277612,-0.027141,-0.0264932,-0.0258188,-0.025119,-0.0243985,-0.0236521,-0.0228808,-0.0220902,-0.0212825,-0.0204595,-0.0196229,-0.0187775,-0.017922,-0.0170576,-0.016188,-0.0153169,-0.0144455,-0.0135777,-0.0127158,-0.0118632,-0.0110227,-0.0101941,-0.0093812,-0.00858886,-0.00781731,-0.00707029,-0.00634784,-0.00565777,-0.00500293,-0.0043789,-0.00379136,-0.00324181,-0.00273151,-0.00226218,-0.00183055,-0.00144639,-0.0011112,-0.000818504,-0.000570363,-0.000366836,-0.000209824,-9.69649e-05,-2.38187e-05,0
0,-2.8945e-05,-0.000114933,-0.000254903,-0.00044658,-0.000687275,-0.000976991,-0.00131495,-0.00169757,-0.00212312,-0.00258835,-0.00309397,-0.00363848,-0.00421723,-0.00482867,-0.00547035,-0.00613894,-0.00683469,-0.00755628,-0.00829732,-0.00905698,-0.00983121,-0.0106218,-0.0114266,-0.0122393,-0.0130596,-0.0138857,-0.0147134,-0.0155455,-0.0163798,-0.0172096,-0.0180359,-0.0188553,-0.0196705,-0.0204791,-0.0212758,-0.0220616,-0.022835,-0.0235932,-0.0243384,-0.0250688,-0.0257802,-0.0264734,-0.0271472,-0.0277996,-0.0284314,-0.0290411,-0.0296273,-0.030189,-0.0307257,-0.0312362,-0.0317192,-0.0321736,-0.0326011,-0.0329992,-0.0333673,-0.0337056,-0.0340102,-0.0342802,-0.0345209,-0.0347282,-0.0349014,-0.035043,-0.0351446,-0.0352074,-0.0352386,-0.0352338,-0.0351927,-0.0351183,-0.0350018,-0.034842,-0.0346499,-0.034421,-0.034155,-0.0338519,-0.0335162,-0.0331382,-0.0327177,-0.0322652,-0.031778,-0.0312567,-0.0307013,-0.0301176,-0.0294971,-0.02884,-0.0281553,-0.0274421,-0.0267024,-0.0259371,-0.025151,-0.0243403,-0.0235055,-0.022652,-0.0217821,-0.020898,-0.0200017,-0.0190977,-0.0181859,-0.017268,-0.0163473,-0.0154259,-0.0145073,-0.0135949,-0.0126904,-0.011799,-0.0109234,-0.0100624,-0.0092218,-0.00840303,-0.00760886,-0.00684277,-0.00610442,-0.00540216,-0.00473896,-0.00411039,-0.00352277,-0.00297444,-0.00246906,-0.00200791,-0.00158743,-0.0012172,-0.00090025,-0.000628376,-0.000405086,-0.000231163,-0.000105717,-2.95057e-05,0
0,-3.1669e-05,-0.000124904,-0.000278455,-0.000488014,-0.000751379,-0.00106521,-0.00142903,-0.00184219,-0.00229984,-0.0028006,-0.00334061,-0.00392038,-0.0045386,-0.00518932,-0.00587177,-0.00658287,-0.00731888,-0.008081,-0.00886669,-0.00967007,-0.0104902,-0.0113226,-0.01217,-0.0130291,-0.0138937,-0.0147646,-0.0156386,-0.0165125,-0.0173887,-0.0182646,-0.0191343,-0.0199986,-0.0208535,-0.0217026,-0.0225424,-0.0233685,-0.0241818,-0.0249807,-0.0257622,-0.0265286,-0.0272774,-0.0280059,-0.028714,-0.0294005,-0.0300636,-0.0307037,-0.031319,-0.0319091,-0.0324728,-0.0330088,-0.033517,-0.0339949,-0.0344414,-0.0348593,-0.0352455,-0.0355992,-0.0359215,-0.0362073,-0.0364558,-0.0366728,-0.0368541,-0.0369995,-0.0371102,-0.0371796,-0.0372076,-0.0372014,-0.0371572,-0.0370745,-0.0369565,-0.0367937,-0.0365873,-0.0363458,-0.0360652,-0.0357461,-0.0353878,-0.0349956,-0.0345594,-0.0340808,-0.0335683,-0.0330193,-0.0324352,-0.0318164,-0.031168,-0.0304827,-0.029762,-0.0290124,-0.0282341,-0.0274294,-0.0265991,-0.0257483,-0.0248743,-0.0239777,-0.0230634,-0.0221336,-0.0211907,-0.0202377,-0.0192781,-0.0183131,-0.0173461,-0.0163769,-0.0154099,-0.0144485,-0.013496,-0.0125539,-0.0116287,-0.0107231,-0.00983599,-0.00897137,-0.00813192,-0.00732095,-0.0065417,-0.00579321,-0.00508478,-0.00441877,-0.00379281,-0.00320846,-0.00266814,-0.00217368,-0.00172705,-0.0013244,-0.000974993,-0.000682668,-0.000439214,-0.000249722,-0.000112488,-2.87462e-05,0
0,-3.52947e-05,-0.000136626,-0.000301604,-0.000528584,-0.000812815,-0.00115146,-0.00154135,-0.00198175,-0.00247155,-0.00300556,-0.00358171,-0.00419649,-0.00485001,-0.0055406,-0.0062622,-0.00701354,-0.0077921,-0.00859345,-0.00941926,-0.0102668,-0.0111292,-0.0120067,-0.0128941,-0.0137944,-0.0147045,-0.0156177,-0.0165349,-0.0174533,-0.0183691,-0.0192856,-0.0201992,-0.0211045,-0.0220023,-0.0228888,-0.0237671,-0.0246341,-0.0254852,-0.0263216,-0.0271413,-0.0279419,-0.0287249,-0.029488,-0.030229,-0.0309475,-0.0316421,-0.0323116,-0.0329555,-0.0335721,-0.0341618,-0.0347226,-0.0352538,-0.0357553,-0.0362237,-0.0366583,-0.0370622,-0.037432,-0.0377673,-0.0380696,-0.0383322,-0.0385554,-0.0387448,-0.0388962,-0.039009,-0.0390862,-0.0391194,-0.0391088,-0.039062,-0.0389748,-0.0388472,-0.0386819,-0.0384708,-0.0382145,-0.0379208,-0.0375859,-0.0372112,-0.0367957,-0.0363437,-0.0358487,-0.0353098,-0.0347355,-0.0341236,-0.0334757,-0.0327926,-0.032078,-0.0313284,-0.0305435,-0.0297291,-0.0288863,-0.028017,-0.0271228,-0.0262081,-0.025272,-0.0243153,-0.0233421,-0.0223546,-0.0213559,-0.0203488,-0.0193364,-0.0183221,-0.0173079,-0.0162944,-0.0152861,-0.0142864,-0.0132981,-0.0123234,-0.0113687,-0.0104387,-0.00952871,-0.00864585,-0.00779114,-0.0069692,-0.00618223,-0.00542914,-0.00471986,-0.00405827,-0.00343835,-0.00286369,-0.00233772,-0.00186051,-0.00143478,-0.0010568,-0.000735799,-0.000475412,-0.000270022,-0.000121971,-3.13193e-05,0
0,-3.84048e-05,-0.00014856,-0.000325463,-0.000567255,-0.000871704,-0.00123383,-0.00165067,-0.00211846,-0.00263698,-0.00320414,-0.00381446,-0.00446582,-0.00515427,-0.00588047,-0.00664187,-0.0074324,-0.00825058,-0.00909392,-0.00995827,-0.0108449,-0.0117509,-0.0126693,-0.0136004,-0.0145398,-0.0154895,-0.0164469,-0.017405,-0.0183643,-0.0193232,-0.0202774,-0.0212297,-0.0221772,-0.0231138,-0.0240407,-0.0249548,-0.0258581,-0.0267478,-0.02762,-0.0284747,-0.0293109,-0.0301264,-0.0309218,-0.0316947,-0.0324439,-0.033168,-0.0338664,-0.0345383,-0.0351816,-0.035795,-0.0363799,-0.0369334,-0.0374555,-0.0379462,-0.0384009,-0.0388192,-0.0392048,-0.0395543,-0.0398672,-0.0401452,-0.0403808,-0.0405745,-0.0407325,-0.0408498,-0.040927,-0.0409669,-0.0409602,-0.0409074,-0.0408167,-0.0406833,-0.0405068,-0.0402924,-0.0400301,-0.0397207,-0.0393718,-0.0389807,-0.0385477,-0.0380722,-0.0375602,-0.0370037,-0.0364031,-0.0357653,-0.0350894,-0.034377,-0.033628,-0.0328483,-0.0320336,-0.031184,-0.030305,-0.0293983,-0.0284653,-0.0275081,-0.0265314,-0.0255346,-0.0245197,-0.0234893,-0.0224466,-0.0213947,-0.0203366,-0.019275,-0.0182143,-0.0171566,-0.0161028,-0.0150571,-0.0140234,-0.0130039,-0.0120015,-0.0110232,-0.010072,-0.00914503,-0.00824882,-0.0073845,-0.00655703,-0.00576789,-0.00501639,-0.00431345,-0.0036604,-0.00305248,-0.00249483,-0.00198857,-0.001536,-0.00113838,-0.000792723,-0.000508583,-0.000289617,-0.000130675,-3.33078e-05,0
0,-4.16241e-05,-0.000159358,-0.000349012,-0.000605733,-0.000927764,-0.00131271,-0.00175476,-0.00225137,-0.00279818,-0.00339495,-0.00403936,-0.0047252,-0.00545083,-0.00621168,-0.00700859,-0.00783882,-0.00869574,-0.00957846,-0.0104839,-0.0114081,-0.0123524,-0.0133135,-0.014285,-0.0152665,-0.0162541,-0.0172498,-0.0182502,-0.0192494,-0.0202475,-0.0212427,-0.0222315,-0.0232158,-0.0241925,-0.0251567,-0.0261089,-0.0270463,-0.0279705,-0.0288788,-0.0297676,-0.0306369,-0.0314855,-0.0323116,-0.033115,-0.0338937,-0.0346465,-0.0353726,-0.0360707,-0.0367404,-0.037379,-0.0379852,-0.0385609,-0.0391037,-0.0396124,-0.0400881,-0.0405252,-0.0409229,-0.0412865,-0.041612,-0.0418986,-0.0421483,-0.0423535,-0.0425139,-0.0426361,-0.0427169,-0.042755,-0.0427537,-0.0427041,-0.0426061,-0.0424677,-0.0422847,-0.042058,-0.0417909,-0.0414749,-0.0411097,-0.0407033,-0.0402536,-0.0397596,-0.0392237,-0.0386495,-0.03803,-0.037366,-0.0366634,-0.0359226,-0.0351441,-0.0343302,-0.0334848,-0.0326048,-0.0316908,-0.0307475,-0.029777,-0.0287811,-0.0277628,-0.0267254,-0.0256698,-0.0245985,-0.023513,-0.0224176,-0.0213153,-0.0202092,-0.0191016,-0.0179977,-0.0169007,-0.0158102,-0.0147316,-0.0136676,-0.0126224,-0.0115972,-0.0105992,-0.00963184,-0.00869348,-0.00778887,-0.00692113,-0.00609317,-0.00530812,-0.00456523,-0.00387276,-0.00323469,-0.00264576,-0.00211174,-0.0016327,-0.00121171,-0.000850154,-0.000545128,-0.000307579,-0.000138698,-3.52635e-05,0
0,-4.27938e-05,-0.000167942,-0.000369083,-0.000641925,-0.000981787,-0.00138656,-0.00185376,-0.0023772,-0.00295418,-0.00358037,-0.00425507,-0.00497576,-0.00573603,-0.00653422,-0.00736592,-0.00823154,-0.00912812,-0.0100489,-0.0109931,-0.011958,-0.0129391,-0.0139378,-0.0149506,-0.0159714,-0.0170001,-0.0180322,-0.0190701,-0.0201098,-0.0211461,-0.0221794,-0.0232073,-0.0242265,-0.0252386,-0.0262406,-0.0272285,-0.0282022,-0.0291591,-0.0301002,-0.0310225,-0.0319241,-0.032804,-0.0336611,-0.0344938,-0.0353012,-0.0360812,-0.0368342,-0.0375581,-0.0382522,-0.0389157,-0.0395456,-0.0401406,-0.0407034,-0.0412315,-0.0417233,-0.04218,-0.0425955,-0.0429695,-0.0433072,-0.0436051,-0.0438619,-0.0440797,-0.0442508,-0.0443745,-0.0444584,-0.0444987,-0.0444947,-0.044449,-0.0443532,-0.0442075,-0.0440178,-0.0437834,-0.0435035,-0.0431811,-0.0428088,-0.042386,-0.0419198,-0.0414081,-0.0408532,-0.0402546,-0.0396162,-0.0389327,-0.0382039,-0.0374358,-0.0366283,-0.0357844,-0.0349048,-0.0339934,-0.0330482,-0.0320702,-0.0310633,-0.0300293,-0.0289721,-0.0278937,-0.026797,-0.0256848,-0.024559,-0.023421,-0.0222753,-0.0211254,-0.0199739,-0.0188238,-0.0176804,-0.016548,-0.015425,-0.0143176,-0.0132278,-0.0121618,-0.0111173,-0.0101047,-0.00912708,-0.00818246,-0.00727536,-0.00640958,-0.00558703,-0.00481301,-0.00408319,-0.00340804,-0.00279153,-0.00222932,-0.00172556,-0.00128182,-0.000900071,-0.000583006,-0.000329313,-0.000145158,-3.73908e-05,0
0,-4.46239e-05,-0.000175105,-0.000387465,-0.000675199,-0.00103404,-0.00145904,-0.00194827,-0.00249856,-0.0031037,-0.00376094,-0.00446559,-0.00521727,-0.00601288,-0.00684601,-0.007715,-0.00861515,-0.00954688,-0.0105069,-0.0114887,-0.0124916,-0.0135127,-0.0145472,-0.0155968,-0.0166579,-0.0177244,-0.0187965,-0.0198697,-0.0209457,-0.0220212,-0.0230909,-0.0241552,-0.0252121,-0.0262579,-0.027294,-0.0283175,-0.029325,-0.0303163,-0.031289,-0.0322428,-0.0331756,-0.0340859,-0.0349727,-0.0358344,-0.0366702,-0.0374775,-0.0382551,-0.0390044,-0.0397226,-0.0404087,-0.0410627,-0.0416799,-0.0422601,-0.0428068,-0.0433161,-0.0437876,-0.0442217,-0.044612,-0.0449591,-0.0452678,-0.0455344,-0.045758,-0.0459407,-0.0460738,-0.0461585,-0.0462012,-0.0461977,-0.0461484,-0.0460554,-0.0459106,-0.0457135,-0.0454719,-0.045183,-0.044847,-0.0444671,-0.0440357,-0.0435533,-0.043025,-0.0424511,-0.0418328,-0.0411698,-0.0404657,-0.0397167,-0.0389225,-0.0380872,-0.0372139,-0.0363036,-0.0353579,-0.0343802,-0.03337,-0.0323286,-0.031258,-0.0301627,-0.029045,-0.0279076,-0.0267534,-0.0255862,-0.0244081,-0.0232203,-0.022027,-0.0208321,-0.0196386,-0.0184492,-0.0172701,-0.0161061,-0.0149548,-0.0138226,-0.012713,-0.0116291,-0.010571,-0.00954875,-0.00856621,-0.00762043,-0.00671717,-0.00585884,-0.00504967,-0.00429066,-0.00358109,-0.00292994,-0.0023421,-0.0018141,-0.0013484,-0.000948097,-0.000614678,-0.000352565,-0.000156892,-3.75449e-05,0
0,-4.77298e-05,-0.000184029,-0.000405576,-0.000708082,-0.00108444,-0.00153075,-0.0020415,-0.00261526,-0.00324861,-0.0039348,-0.00467143,-0.00545338,-0.00628051,-0.00714929,-0.00805296,-0.0089902,-0.00995597,-0.010951,-0.0119717,-0.0130114,-0.0140697,-0.0151434,-0.016228,-0.017325,-0.0184308,-0.0195397,-0.0206513,-0.0217617,-0.0228722,-0.0239796,-0.0250792,-0.0261709,-0.0272527,-0.0283213,-0.0293776,-0.0304189,-0.0314424,-0.0324476,-0.0334319,-0.0343949,-0.0353346,-0.0362501,-0.0371401,-0.0380029,-0.0388375,-0.0396416,-0.0404137,-0.0411555,-0.0418645,-0.042539,-0.0431796,-0.0437813,-0.0443434,-0.0448704,-0.0453579,-0.0458051,-0.0462135,-0.0465761,-0.0468926,-0.0471693,-0.0474015,-0.0475885,-0.0477327,-0.0478258,-0.0478682,-0.0478666,-0.047817,-0.0477192,-0.0475762,-0.0473791,-0.0471291,-0.0468329,-0.0464874,-0.0460927,-0.0456529,-0.0451606,-0.0446155,-0.0440248,-0.0433872,-0.0427035,-0.0419744,-0.0412036,-0.0403877,-0.039526,-0.0386249,-0.0376848,-0.0367078,-0.0356956,-0.0346517,-0.0335766,-0.0324715,-0.0313393,-0.0301834,-0.0290066,-0.0278117,-0.0266018,-0.0253813,-0.0241531,-0.0229178,-0.0216798,-0.020443,-0.019211,-0.0179857,-0.0167749,-0.0155827,-0.0144076,-0.0132558,-0.0121297,-0.011033,-0.00996675,-0.00894042,-0.0079582,-0.00701741,-0.00612366,-0.00528028,-0.00448871,-0.0037522,-0.00306953,-0.00245029,-0.0018988,-0.00141221,-0.000993569,-0.000644666,-0.000370551,-0.000170336,-4.31269e-05,0