-0,-0,-0,-0,-0,-0,-0,-0,-0,-0,-0,-0,-0,-0,-0,-0,-0,-0,-0,-0,-0,-0,-0,-0,-0,-0,-0,-0,-0,-0,-0,-0,-0,-0,-0,-0,-0,-0,-0,-0,-0,-0,-0,-0,-0,-0,-0,-0,-0,-0,-0,-0,-0,-0,-0,-0,-0,-0,-0,-0,-0,-0,-0,-0,-0,-0,-0,-0,-0,-0,-0,-0,-0,-0,-0,-0,-0,-0,-0,-0,-0,-0,-0,-0,-0,-0,-0,-0,-0,-0,-0,-0,-0,-0,-0,-0,-0,-0,-0,-0,-0,-0,-0,-0,-0,-0,-0,-0,-0,-0,-0,-0,-0,-0,-0,-0,-0,-0,-0,-0,-0,-0,-0,-0,-0,-0,-0,-0
-0,-4.00061e-06,-5.72637e-06,-5.1804e-06,-2.92256e-06,8.89981e-07,4.89785e-06,8.49053e-06,1.16152e-05,1.51512e-05,1.94592e-05,2.288e-05,2.56162e-05,2.8224e-05,2.99423e-05,3.26208e-05,3.59783e-05,3.76328e-05,3.88592e-05,3.9107e-05,4.12162e-05,4.38438e-05,4.39693e-05,4.44182e-05,4.48146e-05,4.37552e-05,4.57968e-05,4.77571e-05,4.62873e-05,4.60834e-05,4.57921e-05,4.35809e-05,4.58329e-05,4.73449e-05,4.43969e-05,4.39313e-05,4.32023e-05,4.01882e-05,4.26081e-05,4.38101e-05,3.97414e-05,3.90767e-05,3.81195e-05,3.46921e-05,3.68191e-05,3.77205e-05,3.3191e-05,3.22077e-05,3.10534e-05,2.7667e-05,2.88152e-05,2.92252e-05,2.51084e-05,2.36826e-05,2.22364e-05,1.93506e-05,1.88036e-05,1.83876e-05,1.55441e-05,1.36672e-05,1.18516e-05,1.00432e-05,8.19344e-06,5.02207e-06,3.08948e-06,2.5052e-06,2.20691e-07,-1.88053e-06,-4.04611e-06,-4.37971e-06,-1.01767e-05,-1.41761e-05,-1.22959e-05,-1.46528e-05,-1.67349e-05,-1.90059e-05,-1.77446e-05,-2.53705e-05,-3.14242e-05,-2.78054e-05,-2.98223e-05,-3.15108e-05,-3.34828e-05,-3.0783e-05,-3.87017e-05,-4.61039e-05,-4.18678e-05,-4.32162e-05,-4.42046e-05,-4.54346e-05,-4.17413e-05,-4.81516e-05,-5.54319e-05,-5.16527e-05,-5.20762e-05,-5.21633e-05,-5.22923e-05,-5.26114e-05,-4.83562e-05,-5.14407e-05,-5.65648e-05,-5.38581e-05,-5.29554e-05,-5.1742e-05,-5.03499e-05,-4.90386e-05,-4.50979e-05,-4.37798e-05,-4.4888e-05,-4.3085e-05,-4.0645e-05,-3.80388e-05,-3.51059e-05,-3.19311e-05,-2.88545e-05,-2.33062e-05,-1.96368e-05,-1.82069e-05,-1.44369e-05,-1.07415e-05,-6.89313e-06,-2.82369e-06,8.61483e-07,8.40639e-07,6.96122e-06,1.07779e-05,4.77588e-06,-0
-0,-1.11646e-05,-1.40334e-05,-1.04073e-05,-2.5243e-06,9.05585e-06,2.3213e-05,3.71516e-05,4.98186e-05,6.19241e-05,7.52992e-05,8.89962e-05,0.000100325,0.000110133,0.000118685,0.000126442,0.000136193,0.000145266,0.000150994,0.000154744,0.000158493,0.000165423,0.000170879,0.000172399,0.000173992,0.000174109,0.000174705,0.000179659,0.000181515,0.000179067,0.000177934,0.000175017,0.00017338,0.000177187,0.000176258,0.000170733,0.000167902,0.000162926,0.000159834,0.000162704,0.00015959,0.000151955,0.000147902,0.000141614,0.0001374,0.000138837,0.00013408,0.000125336,0.000120174,0.000113067,0.000107783,0.000106798,0.000100853,9.21138e-05,8.58335e-05,7.82447e-05,7.18043e-05,6.72492e-05,6.04213e-05,5.27651e-05,4.54733e-05,3.82378e-05,3.06616e-05,2.28661e-05,1.30729e-05,5.22564e-06,-1.91045e-07,-8.11311e-06,-1.64752e-05,-2.31672e-05,-3.17715e-05,-4.68182e-05,-5.57828e-05,-5.85805e-05,-6.61992e-05,-7.47092e-05,-7.97234e-05,-8.81113e-05,-0.000106878,-0.000116765,-0.000117422,-0.000123681,-0.000131004,-0.000133525,-0.000140086,-0.000159416,-0.000169322,-0.000168419,-0.000172402,-0.000177159,-0.000176538,-0.0001797,-0.000195419,-0.000203427,-0.000201338,-0.000202079,-0.000203052,-0.000203806,-0.000199544,-0.000197053,-0.000204394,-0.000207393,-0.000203255,-0.000199229,-0.000194736,-0.000189586,-0.000181121,-0.000172709,-0.000168167,-0.000163185,-0.000155811,-0.000146191,-0.000135687,-0.000124438,-0.00011205,-9.83686e-05,-8.2317e-05,-6.86006e-05,-5.78709e-05,-4.46571e-05,-3.05524e-05,-1.69582e-05,-4.12775e-06,3.81699e-06,1.03208e-05,2.15499e-05,1.88991e-05,-0
-0,-1.82956e-05,-1.96625e-05,-9.70658e-06,7.89939e-06,3.10213e-05,5.85678e-05,8.80174e-05,0.000116146,0.000142623,0.000168876,0.000195868,0.000221407,0.000243614,0.000262906,0.000280509,0.000297851,0.000315936,0.000331373,0.0003417,0.000350652,0.000360256,0.000371328,0.000379035,0.00038277,0.000384586,0.000386324,0.000389672,0.000394495,0.000395199,0.000391736,0.000387393,0.000383873,0.000382826,0.000382996,0.000378441,0.000369867,0.000361207,0.000354204,0.000350103,0.000346457,0.000338005,0.000325902,0.000314141,0.000304538,0.000297854,0.000290501,0.000279053,0.000264736,0.000250652,0.000238679,0.000229189,0.000217932,0.000204148,0.000188699,0.000172933,0.000158576,0.000145722,0.000130293,0.000114724,9.90935e-05,8.31047e-05,6.63319e-05,4.93512e-05,3.2281e-05,1.18766e-05,-5.21825e-06,-2.00256e-05,-3.74671e-05,-5.39176e-05,-7.25366e-05,-9.33528e-05,-0.000117788,-0.000135758,-0.000148712,-0.00016591,-0.000180138,-0.000198285,-0.000220878,-0.000246854,-0.000264655,-0.000274989,-0.00028969,-0.000299662,-0.000314253,-0.000334995,-0.000358585,-0.000373943,-0.000380641,-0.000390422,-0.000394179,-0.000401992,-0.000416381,-0.000432568,-0.000442285,-0.000443682,-0.000445976,-0.000447135,-0.000442458,-0.000439427,-0.00044174,-0.000444131,-0.000442797,-0.000435411,-0.00042648,-0.000415454,-0.000399861,-0.000383712,-0.000369864,-0.000354315,-0.000338218,-0.000319465,-0.000297844,-0.000274174,-0.000247875,-0.000219739,-0.000190825,-0.000158774,-0.000129265,-0.00010277,-7.4339e-05,-4.67682e-05,-2.04362e-05,-6.4099e-07,1.49299e-05,2.51834e-05,2.59389e-05,-0
-0,-2.24171e-05,-1.8883e-05,1.29943e-06,3.23483e-05,7.12806e-05,0.00011559,0.000163431,0.000211495,0.000257025,0.000301162,0.000344304,0.000386777,0.000426059,0.000459968,0.000490696,0.000519905,0.000547539,0.000574001,0.00059519,0.000611355,0.000627352,0.000641903,0.000656572,0.000666219,0.000669852,0.000673661,0.000677945,0.000681235,0.000684763,0.000683076,0.000675256,0.000669908,0.000665985,0.000660609,0.00065612,0.00064609,0.000630018,0.000618415,0.00060879,0.000596907,0.00058593,0.000569867,0.000548044,0.000531599,0.000517411,0.000500177,0.000483272,0.0004626,0.00043704,0.000416237,0.000397554,0.000375519,0.000352808,0.000328397,0.00030082,0.000275824,0.000252303,0.000225816,0.000197495,0.000170042,0.000142913,0.000113705,8.45513e-05,5.50669e-05,2.44487e-05,-9.81084e-06,-3.9803e-05,-6.7227e-05,-9.73192e-05,-0.000128663,-0.000163111,-0.000196034,-0.000233925,-0.000264771,-0.00029054,-0.000318352,-0.00034863,-0.000384609,-0.000416784,-0.000454186,-0.000483145,-0.000504766,-0.000526539,-0.000551198,-0.000583078,-0.000609896,-0.000640998,-0.000663702,-0.000678025,-0.000689747,-0.000703581,-0.000724772,-0.000740408,-0.000758423,-0.000769719,-0.000772633,-0.00077596,-0.000771292,-0.000767868,-0.000768935,-0.000765413,-0.000761138,-0.000752635,-0.000737751,-0.000720064,-0.000695656,-0.000669782,-0.000645456,-0.000617468,-0.000585996,-0.000553292,-0.000517521,-0.000477559,-0.000434031,-0.000387099,-0.00033927,-0.000290688,-0.00023696,-0.000187038,-0.000141541,-9.48317e-05,-5.17935e-05,-1.62591e-05,1.12855e-05,2.92057e-05,2.7766e-05,-0
-0,-2.10848e-05,-9.29045e-06,2.52695e-05,7.38319e-05,0.00013206,0.00019721,0.000266109,0.000336641,0.000405765,0.000471676,0.000535337,0.000596256,0.000654867,0.000708168,0.000754664,0.000798365,0.000839049,0.000875949,0.000909779,0.000937597,0.000960724,0.00098211,0.00100006,0.00101718,0.00102699,0.00103139,0.00103765,0.00104125,0.00104237,0.00104348,0.00103637,0.00102567,0.00101906,0.00100961,0.000998038,0.000987301,0.000968009,0.000946629,0.000931011,0.000911791,0.000890669,0.000870538,0.000842308,0.000813305,0.00079037,0.000763304,0.000734301,0.000705761,0.000670837,0.000636155,0.00060623,0.000572193,0.000536247,0.000499648,0.000459634,0.00042061,0.000383613,0.000343239,0.000301172,0.000256973,0.000214443,0.000171565,0.000126743,8.22543e-05,3.55497e-05,-1.18762e-05,-6.3105e-05,-0.000109817,-0.00015196,-0.000200501,-0.000250394,-0.000300468,-0.00035019,-0.000404622,-0.000452245,-0.000490312,-0.000537534,-0.000588074,-0.000636538,-0.000683324,-0.00073479,-0.000778194,-0.00080796,-0.000847064,-0.000890752,-0.000930499,-0.000967367,-0.0010073,-0.00103941,-0.00105584,-0.00107888,-0.0011068,-0.00112941,-0.00114803,-0.00116748,-0.00117995,-0.00118314,-0.00117947,-0.00117501,-0.0011747,-0.00116842,-0.00115705,-0.00114298,-0.00112414,-0.00109813,-0.00106319,-0.00102554,-0.000988345,-0.000945909,-0.00089889,-0.000846193,-0.000791271,-0.000733618,-0.000668555,-0.000600025,-0.000529333,-0.000456833,-0.000383466,-0.000304579,-0.000231565,-0.000165663,-0.000101438,-4.75682e-05,-3.75683e-06,2.51143e-05,2.94528e-05,-0
-0,-1.27874e-05,1.17557e-05,6.35781e-05,0.000133892,0.000215433,0.000304712,0.000398582,0.000493483,0.000588152,0.000680346,0.000767861,0.000850978,0.000929493,0.00100358,0.00107078,0.00113094,0.00118684,0.00123772,0.00128212,0.00132302,0.00135815,0.00138621,0.00141088,0.00143111,0.00144805,0.00145851,0.00146418,0.00146897,0.00146993,0.00146712,0.00146204,0.00145129,0.00143751,0.0014241,0.00140737,0.00138765,0.00136597,0.00134011,0.00131257,0.00128555,0.00125557,0.00122303,0.00118824,0.00115104,0.00111341,0.00107519,0.0010343,0.000991251,0.000945215,0.000898755,0.000852992,0.000804795,0.000754252,0.000701975,0.000645875,0.000591364,0.000538538,0.000481403,0.000422346,0.000362039,0.000298797,0.000236286,0.00017603,0.000113028,4.77022e-05,-1.87312e-05,-8.5999e-05,-0.000157522,-0.000223578,-0.000286178,-0.000355695,-0.000425256,-0.000494356,-0.00056353,-0.00063764,-0.000701902,-0.000761601,-0.000831003,-0.000897741,-0.000962239,-0.00102558,-0.00109324,-0.00114789,-0.00119721,-0.00125661,-0.0013107,-0.00136097,-0.00140827,-0.00145772,-0.00149318,-0.00152244,-0.00155977,-0.00159009,-0.00161483,-0.00163501,-0.00165419,-0.00166596,-0.00166157,-0.00165708,-0.00165506,-0.00164517,-0.00162873,-0.00160585,-0.00157802,-0.00154444,-0.00149846,-0.00144727,-0.00139565,-0.00133659,-0.00127078,-0.00119937,-0.00112004,-0.00103742,-0.000950883,-0.00085706,-0.000760642,-0.000661763,-0.000560865,-0.000459303,-0.000353975,-0.000257382,-0.000172397,-9.54088e-05,-3.31818e-05,1.09928e-05,2.54242e-05,-0
-0,2.5728e-06,4.54522e-05,0.000118394,0.000213116,0.000322225,0.000439438,0.000561097,0.000684197,0.000805732,0.000925558,0.00104109,0.00114928,0.00125106,0.00134583,0.00143478,0.00151612,0.0015888,0.00165492,0.0017134,0.00176473,0.00181252,0.00185258,0.00188347,0.00190974,0.00192929,0.00194603,0.00195668,0.00196015,0.00196091,0.00195725,0.00194728,0.00193654,0.0019216,0.00189978,0.00187718,0.00185108,0.00181901,0.00178811,0.00175457,0.00171431,0.00167398,0.00163088,0.00158199,0.00153502,0.00148717,0.00143277,0.00137791,0.00132073,0.00125812,0.00119707,0.00113697,0.00107114,0.00100354,0.000933902,0.000859678,0.000785645,0.00071416,0.000639019,0.000560418,0.000479953,0.000398136,0.000311184,0.000227633,0.000147114,6.05587e-05,-2.79502e-05,-0.000117354,-0.000207156,-0.000301663,-0.000391629,-0.000478001,-0.000569265,-0.000661067,-0.000752845,-0.000843645,-0.000937025,-0.00102588,-0.0011109,-0.00119781,-0.00128315,-0.00136679,-0.00144796,-0.001528,-0.00160406,-0.00167657,-0.00174656,-0.00181266,-0.00187491,-0.00193251,-0.00198478,-0.00203336,-0.00207865,-0.00211743,-0.00214973,-0.00217588,-0.00219566,-0.00221203,-0.0022139,-0.00220875,-0.00220497,-0.00219128,-0.00216922,-0.00213885,-0.00210022,-0.0020542,-0.00199604,-0.00193121,-0.00186347,-0.00178599,-0.00169989,-0.00160607,-0.00150463,-0.00139342,-0.00127644,-0.00115732,-0.00103314,-0.000904547,-0.00077354,-0.000641907,-0.000511756,-0.000380398,-0.000262289,-0.000163089,-7.68334e-05,-1.43623e-05,1.50287e-05,-0
-0,2.43441e-05,9.18844e-05,0.000191284,0.00031353,0.000452508,0.00060161,0.000754706,0.000908414,0.00106007,0.00120837,0.00135296,0.00149031,0.00161781,0.00173636,0.00184604,0.00194942,0.00204322,0.00212579,0.0021993,0.00226385,0.00232174,0.00237418,0.00241621,0.00244786,0.0024724,0.00249036,0.00250665,0.00251393,0.00251234,0.00250718,0.00249444,0.0024779,0.00246134,0.00243662,0.00240448,0.00237056,0.00233004,0.0022876,0.00224682,0.00219821,0.00214342,0.00208768,0.00202571,0.00196332,0.00190301,0.00183556,0.00176308,0.00168935,0.00160976,0.0015306,0.00145286,0.00136942,0.00128236,0.00119296,0.00109839,0.00100427,0.000910144,0.000812818,0.000713806,0.00061108,0.000506494,0.000397952,0.000286962,0.000180289,7.29456e-05,-3.94093e-05,-0.000153294,-0.000268665,-0.000384137,-0.000504986,-0.000621344,-0.000732983,-0.000849269,-0.000965335,-0.00108197,-0.00119462,-0.0013141,-0.00143007,-0.00153599,-0.00164384,-0.00174908,-0.00185305,-0.00194871,-0.00205032,-0.00215023,-0.00223591,-0.00231914,-0.00239716,-0.00247082,-0.00253222,-0.0025967,-0.00266029,-0.00270797,-0.00274869,-0.00278112,-0.0028062,-0.00282306,-0.00282658,-0.00282506,-0.00282033,-0.00280272,-0.00277453,-0.00273607,-0.00268719,-0.00262829,-0.0025534,-0.0024724,-0.00238846,-0.00229156,-0.00218362,-0.00206515,-0.0019378,-0.00180157,-0.0016511,-0.00149788,-0.00134533,-0.00118508,-0.00102195,-0.000857218,-0.000694161,-0.000536233,-0.000381778,-0.000247321,-0.000137595,-5.02964e-05,-1.54097e-06,-0
-0,5.21908e-05,0.000150759,0.0002819,0.00043665,0.000607921,0.000790867,0.000979061,0.00116625,0.00135063,0.00153036,0.00170418,0.00187161,0.00202845,0.00217275,0.00230629,0.00242985,0.00254544,0.00264852,0.00273763,0.002817,0.00288713,0.00294846,0.00300224,0.00304354,0.00307229,0.00309456,0.00311047,0.00312209,0.00312281,0.00311364,0.00309874,0.00307745,0.00305321,0.00302564,0.00298838,0.00294346,0.00289389,0.00284054,0.00278632,0.00272867,0.00266307,0.00259124,0.00251494,0.00243685,0.0023591,0.00227673,0.00218843,0.0020954,0.00199705,0.00189824,0.00180027,0.00169612,0.00158842,0.00147774,0.00136063,0.00124365,0.00112741,0.00100376,0.000879489,0.000754234,0.000624373,0.000490387,0.000355779,0.000218405,8.17296e-05,-5.38857e-05,-0.000194994,-0.000336806,-0.000480527,-0.000625001,-0.000774414,-0.000919074,-0.00105816,-0.00120193,-0.00134458,-0.00148487,-0.00162635,-0.00177421,-0.00191297,-0.00204208,-0.00217242,-0.00229895,-0.00241819,-0.00253764,-0.00266351,-0.00277687,-0.00287696,-0.00297361,-0.00306304,-0.00313977,-0.00321469,-0.00329361,-0.00335791,-0.00340741,-0.00344797,-0.00347794,-0.00349845,-0.00350149,-0.0034998,-0.00349623,-0.00347552,-0.00344119,-0.00339405,-0.00333411,-0.0032618,-0.0031717,-0.00307072,-0.0029667,-0.0028502,-0.00271882,-0.00257511,-0.00241977,-0.00225373,-0.00207511,-0.00188461,-0.00169515,-0.00150319,-0.00130452,-0.00110545,-0.000906899,-0.000713847,-0.0005308,-0.000358792,-0.00021081,-9.88488e-05,-2.46758e-05,-0
-0,8.69493e-05,0.000221159,0.000389885,0.000581558,0.000789407,0.00100817,0.00123303,0.00145769,0.00167679,0.00189,0.00209625,0.00229304,0.00248045,0.00265402,0.00281222,0.00295918,0.00309435,0.0032188,0.00332765,0.0034209,0.00350466,0.00357751,0.0036387,0.00369086,0.00372793,0.00375213,0.00377126,0.00378157,0.00378501,0.00377649,0.00375539,0.00373034,0.00370041,0.00366327,0.00362133,0.00356924,0.00350629,0.00344243,0.00337595,0.0033029,0.00322578,0.00314073,0.00304612,0.00295193,0.00285684,0.00275501,0.00264877,0.00253711,0.0024173,0.00229759,0.00217812,0.00205165,0.00191981,0.00178535,0.00164484,0.00150293,0.00136166,0.00121378,0.00105965,0.0009058,0.000751589,0.000589171,0.00042651,0.00026419,9.33691e-05,-7.49684e-05,-0.000241008,-0.000413167,-0.000586735,-0.000760876,-0.000935675,-0.00111619,-0.0012909,-0.00145946,-0.00163238,-0.00180199,-0.00197183,-0.00214315,-0.00231556,-0.00247884,-0.00263204,-0.00278548,-0.00292991,-0.00307315,-0.00321743,-0.00335706,-0.00348465,-0.00359864,-0.00370753,-0.00380118,-0.00389082,-0.00398014,-0.00405811,-0.00412229,-0.00417089,-0.0042081,-0.00423309,-0.00423787,-0.00423427,-0.00422806,-0.00420498,-0.00416495,-0.00410941,-0.00403862,-0.00395243,-0.00384517,-0.00372644,-0.00359925,-0.00345791,-0.00330408,-0.00313324,-0.00294879,-0.002752,-0.00253937,-0.0023179,-0.00208841,-0.00185594,-0.00162274,-0.00138507,-0.00114955,-0.000918713,-0.000698501,-0.000494968,-0.000308582,-0.000156171,-5.29895e-05,-0
-0,0.000129051,0.000304112,0.000514131,0.000747837,0.000996231,0.00125425,0.00151712,0.00178064,0.00203845,0.00228725,0.00252713,0.00275642,0.00297308,0.00317673,0.00336393,0.00353429,0.00369161,0.00383475,0.00396406,0.00407586,0.0041719,0.00425664,0.00432822,0.00438648,0.00443284,0.00446415,0.00448307,0.00449459,0.00449555,0.00448817,0.00446611,0.00443305,0.00439683,0.00435264,0.00429973,0.0042406,0.00416898,0.00408954,0.0040099,0.00392325,0.00382923,0.00373001,0.00362006,0.00350545,0.00339159,0.00327069,0.00314337,0.00301082,0.00286967,0.0027266,0.00258371,0.00243335,0.00227744,0.00211577,0.00194824,0.00178115,0.00161264,0.00143686,0.00125645,0.0010699,0.000883696,0.000694675,0.000501662,0.000308597,0.000110351,-9.46574e-05,-0.000296759,-0.000495846,-0.000701746,-0.000908484,-0.00111516,-0.00132305,-0.00153605,-0.00174256,-0.00194209,-0.00214342,-0.00234486,-0.00254662,-0.00274387,-0.0029421,-0.00313089,-0.00330827,-0.00347986,-0.00364983,-0.00381918,-0.00397812,-0.00413202,-0.00427314,-0.00439953,-0.00451143,-0.00461806,-0.00472251,-0.00481067,-0.00488704,-0.0049486,-0.00499249,-0.00502211,-0.00502961,-0.00502646,-0.00501754,-0.00498912,-0.00494328,-0.00487931,-0.00479679,-0.00469645,-0.00457179,-0.00443362,-0.00428674,-0.00411831,-0.00393538,-0.0037385,-0.00352333,-0.00329357,-0.00304616,-0.00278833,-0.00252563,-0.00225001,-0.0019729,-0.00169789,-0.00142103,-0.0011504,-0.000889688,-0.000645668,-0.000425505,-0.000232277,-8.59362e-05,-0
-0,0.000178186,0.000399978,0.000654653,0.000933644,0.00122736,0.00152833,0.00183271,0.00213538,0.0024334,0.00272138,0.00299661,0.00325956,0.00350788,0.00374028,0.00395683,0.00415488,0.00433469,0.00449855,0.00464499,0.00477608,0.00488882,0.00498441,0.00506642,0.00513308,0.00518432,0.00522287,0.00524689,0.005257,0.00525711,0.00524539,0.00522282,0.00518644,0.00514065,0.00508844,0.00502624,0.00495486,0.00487365,0.00478314,0.00468685,0.00458477,0.00447475,0.00435714,0.00423015,0.00409775,0.0039624,0.00382027,0.00367133,0.00351594,0.00335084,0.00318385,0.0030162,0.00284002,0.00265763,0.0024697,0.00227184,0.00207504,0.00187964,0.00167432,0.00146342,0.00124807,0.00102647,0.000802256,0.000580482,0.000355467,0.000124071,-0.00011121,-0.000352266,-0.000590037,-0.000826184,-0.00106641,-0.00130693,-0.00154979,-0.00179212,-0.00203856,-0.00227845,-0.00250923,-0.00274311,-0.00297667,-0.00320691,-0.00343172,-0.00365583,-0.00387016,-0.00406779,-0.00426501,-0.00446053,-0.00464546,-0.00481961,-0.00498619,-0.00513947,-0.00526985,-0.00539384,-0.00551374,-0.00561643,-0.00570241,-0.00577402,-0.00582907,-0.00586458,-0.00587451,-0.0058719,-0.00586127,-0.00582813,-0.0057738,-0.00570036,-0.00560731,-0.00549242,-0.00534972,-0.005191,-0.00502195,-0.00483065,-0.00461655,-0.00438703,-0.00414232,-0.00387852,-0.00359481,-0.00329848,-0.00299662,-0.00268503,-0.00236184,-0.00203881,-0.00172244,-0.00140806,-0.00110433,-0.000816807,-0.000552779,-0.000322285,-0.000130947,-0
-0,0.00023337,0.000507344,0.00081241,0.00113932,0.00148098,0.00182963,0.00217828,0.00252364,0.00286136,0.00318965,0.00350419,0.00380174,0.00408325,0.00434646,0.00459038,0.00481708,0.00502283,0.00520741,0.00537343,0.00551953,0.00565012,0.00576073,0.00585143,0.00592712,0.0059846,0.00602603,0.00605579,0.0060686,0.00606557,0.00605147,0.00602231,0.00598338,0.0059323,0.00586862,0.00579673,0.00571376,0.00561855,0.00551636,0.00540626,0.00528606,0.00515886,0.0050228,0.00487572,0.00472369,0.00456771,0.00440269,0.00423061,0.00405111,0.00386121,0.00366735,0.00347307,0.00327059,0.00306004,0.00284337,0.00261696,0.00238684,0.00215927,0.00192497,0.001682,0.00143419,0.00118158,0.00091856,0.000659467,0.000403674,0.000137467,-0.000132577,-0.000406205,-0.000685563,-0.000962716,-0.00123541,-0.00151152,-0.00178974,-0.00206904,-0.00234731,-0.00262793,-0.00290098,-0.00316654,-0.00343408,-0.00369717,-0.00395568,-0.00420831,-0.00445797,-0.00469286,-0.00491779,-0.00514142,-0.00535235,-0.00555224,-0.00574004,-0.0059173,-0.0060733,-0.00621629,-0.00635322,-0.00647027,-0.00656903,-0.00664953,-0.00671242,-0.00675611,-0.00677033,-0.00676892,-0.00675672,-0.00671886,-0.00665774,-0.00657244,-0.00646589,-0.00633793,-0.00617707,-0.00599751,-0.00580531,-0.00558778,-0.0053479,-0.00508341,-0.0048022,-0.00450514,-0.00418326,-0.00384819,-0.00350526,-0.00315097,-0.00278869,-0.00241725,-0.00204891,-0.00169124,-0.00134136,-0.00100621,-0.000695375,-0.000418282,-0.000182901,-0
-0,0.000293118,0.000625936,0.0009863,0.00136602,0.00175777,0.002156,0.00255329,0.00294356,0.00332418,0.00369223,0.00404674,0.00438283,0.00469807,0.0049934,0.00526709,0.00551922,0.00575203,0.00596118,0.0061457,0.00630998,0.00645368,0.00657984,0.00668387,0.00676606,0.00683077,0.00687668,0.00690664,0.00692337,0.00692121,0.00690153,0.00686852,0.00682104,0.00676449,0.00669374,0.00660867,0.00651403,0.00640532,0.00628659,0.00616239,0.00602655,0.00587934,0.00572413,0.00555642,0.00538195,0.00520383,0.00501613,0.00481927,0.00461439,0.00439805,0.00417734,0.00395353,0.00372187,0.00348325,0.00323596,0.00297827,0.00271792,0.00245427,0.00218496,0.00191135,0.00162867,0.00134131,0.00104545,0.000744844,0.000449461,0.000150537,-0.000157154,-0.000467754,-0.00078094,-0.00110256,-0.00141832,-0.00172791,-0.00204469,-0.00236124,-0.00267736,-0.00299213,-0.0033077,-0.0036161,-0.00391637,-0.00421539,-0.00450838,-0.00479493,-0.00507444,-0.00534537,-0.00560673,-0.00585845,-0.0060984,-0.00632467,-0.00653758,-0.0067362,-0.00691539,-0.00708219,-0.00723717,-0.00737045,-0.0074828,-0.00757425,-0.00764484,-0.00769427,-0.00771316,-0.00771403,-0.0077012,-0.00765917,-0.00759068,-0.00749624,-0.00737431,-0.00722898,-0.00705136,-0.0068504,-0.00663488,-0.00639091,-0.00612099,-0.00582764,-0.00550777,-0.00517029,-0.004811,-0.00443443,-0.00405032,-0.00365156,-0.00324348,-0.00282951,-0.00240962,-0.00199689,-0.00159949,-0.00121402,-0.000852148,-0.000523942,-0.000236663,-0
-0,0.000358274,0.00075413,0.00117552,0.00161224,0.00205817,0.00250728,0.00295526,0.00339445,0.00381977,0.00423042,0.00462397,0.00499972,0.00535218,0.00567964,0.00598393,0.00626418,0.00652096,0.00675522,0.00696251,0.00714308,0.00730264,0.00744049,0.00755792,0.00765087,0.0077201,0.00777091,0.00780365,0.00781873,0.00781772,0.00779699,0.00775633,0.00770264,0.00763625,0.00755754,0.00746269,0.00735316,0.00723072,0.00709669,0.00695414,0.00680132,0.00663618,0.00645932,0.00627033,0.00607333,0.00587093,0.00565806,0.00543599,0.00520492,0.00496091,0.0047116,0.00445913,0.00419497,0.00392446,0.00364748,0.00335688,0.00306284,0.00276733,0.00245927,0.00214757,0.0018325,0.00150822,0.00117458,0.000839595,0.000501133,0.000159274,-0.000183024,-0.000533146,-0.000886237,-0.00124351,-0.00160461,-0.00195943,-0.00231186,-0.00266871,-0.00302469,-0.00337845,-0.00372935,-0.00408135,-0.00442521,-0.00475865,-0.0050888,-0.00541119,-0.00572514,-0.00602661,-0.00632376,-0.00661164,-0.00688026,-0.00713533,-0.00737505,-0.00759834,-0.00779812,-0.00798688,-0.00816415,-0.00831443,-0.00844173,-0.00854545,-0.00862504,-0.00868064,-0.0087023,-0.0087052,-0.0086929,-0.0086472,-0.00857167,-0.00846701,-0.00833316,-0.00816877,-0.00796979,-0.00774925,-0.00750938,-0.00723819,-0.00693811,-0.00661116,-0.00625913,-0.00587958,-0.00547522,-0.0050585,-0.00462993,-0.00418574,-0.00372979,-0.00326653,-0.00280096,-0.00233297,-0.00187714,-0.00143915,-0.0010221,-0.000639258,-0.000295389,-0
-0,0.000429745,0.000892246,0.00137826,0.00187723,0.00238065,0.00288454,0.00338358,0.00387376,0.00434799,0.00480238,0.00523766,0.00565113,0.00604219,0.00640559,0.00674003,0.00704912,0.00733194,0.00758834,0.00781903,0.00801996,0.00819357,0.00834472,0.0084716,0.00857647,0.00865407,0.008707,0.00874218,0.00875765,0.00875355,0.00873161,0.00868743,0.00862416,0.00854881,0.00845852,0.00835394,0.00823215,0.00809286,0.00794262,0.00778261,0.0076102,0.00742553,0.00722819,0.00701583,0.00679503,0.006568,0.00632959,0.00607979,0.00582062,0.00554854,0.00526935,0.00498616,0.00469184,0.00438629,0.00407441,0.00375198,0.00342306,0.00309184,0.00274985,0.00239718,0.00204128,0.00168212,0.00130964,0.000934818,0.000559792,0.000173177,-0.000214486,-0.000601802,-0.000995785,-0.00139547,-0.0017947,-0.00219524,-0.00259472,-0.00298986,-0.00338692,-0.00378239,-0.00417522,-0.00456306,-0.00495022,-0.00532857,-0.00569458,-0.00605472,-0.0064055,-0.00674305,-0.00707093,-0.00739301,-0.00769769,-0.00798189,-0.00824969,-0.00849967,-0.0087242,-0.00893296,-0.00912997,-0.00930039,-0.00944353,-0.00956046,-0.00965067,-0.00971373,-0.00973985,-0.00974251,-0.00972886,-0.00968104,-0.0095987,-0.0094842,-0.00933729,-0.00915835,-0.00893612,-0.0086904,-0.00842772,-0.00812848,-0.00779764,-0.00743655,-0.00704783,-0.00663265,-0.00618188,-0.00571594,-0.0052449,-0.00475219,-0.00424666,-0.00373245,-0.00321333,-0.00269587,-0.00218088,-0.0016798,-0.00120559,-0.000762645,-0.000358634,-0
-0,0.000506834,0.00104119,0.00159421,0.00215848,0.00272475,0.00328625,0.00383989,0.00438076,0.00490545,0.0054079,0.00588565,0.00633953,0.00676683,0.00716723,0.00753586,0.0078729,0.00818248,0.0084629,0.00871345,0.0089357,0.00912713,0.00928998,0.00942837,0.00954002,0.00962721,0.00968633,0.00972105,0.00973694,0.00973083,0.00970357,0.00965611,0.00958668,0.00949981,0.00939859,0.00928001,0.00914611,0.00899266,0.00882365,0.00864508,0.00845301,0.00824699,0.00802763,0.00779246,0.00754662,0.00729348,0.00702832,0.00675112,0.00646164,0.00615923,0.00585004,0.00553476,0.00520772,0.00486985,0.00452046,0.00416076,0.00379796,0.00342974,0.00305017,0.0026612,0.00226183,0.00185982,0.00144988,0.00103419,0.000618175,0.000192462,-0.000242477,-0.000676703,-0.00111034,-0.00155338,-0.00199551,-0.00243614,-0.00288363,-0.00332695,-0.00376462,-0.00420257,-0.00463788,-0.00506888,-0.00549368,-0.00591573,-0.00632723,-0.00672491,-0.00711341,-0.00748801,-0.0078525,-0.00820608,-0.00854454,-0.00886385,-0.00916081,-0.00943809,-0.00968823,-0.00992076,-0.0101377,-0.0103262,-0.010487,-0.0106185,-0.0107196,-0.0107906,-0.010822,-0.0108276,-0.0108113,-0.0107587,-0.0106712,-0.0105464,-0.0103864,-0.0101906,-0.00995049,-0.00967873,-0.00938756,-0.0090614,-0.00869864,-0.00830296,-0.00787574,-0.00742021,-0.00692967,-0.0064145,-0.0058909,-0.00535131,-0.0047937,-0.00422536,-0.00365115,-0.00307624,-0.00250693,-0.00194226,-0.00140001,-0.000895568,-0.000426064,-0
-0,0.000589102,0.00119963,0.00182463,0.00245598,0.00308763,0.00371154,0.00432223,0.00491717,0.00549158,0.00604357,0.00656791,0.0070626,0.00752867,0.00796335,0.00836717,0.00873627,0.00907158,0.00937652,0.0096487,0.00988846,0.0100989,0.0102773,0.0104247,0.0105456,0.0106374,0.0107031,0.0107418,0.010755,0.0107469,0.0107155,0.0106605,0.0105852,0.0104897,0.0103749,0.0102436,0.0100938,0.00992531,0.00973971,0.00954067,0.00932809,0.00910024,0.00885768,0.00859794,0.00832657,0.00804689,0.00775375,0.00744758,0.00712896,0.00679333,0.00645122,0.00610467,0.00574332,0.00537071,0.00498724,0.00458679,0.0041844,0.00378093,0.00336193,0.00293347,0.00249614,0.00204779,0.0015923,0.00113777,0.000678628,0.000210027,-0.000265366,-0.000749463,-0.00123212,-0.00171689,-0.00220444,-0.00268898,-0.00317779,-0.00367104,-0.0041586,-0.0046385,-0.00511887,-0.00559299,-0.00606033,-0.00652232,-0.00697811,-0.00742124,-0.00784886,-0.0082624,-0.00866337,-0.00905229,-0.0094231,-0.00977594,-0.0101069,-0.0104134,-0.0106906,-0.0109472,-0.0111857,-0.0113934,-0.0115705,-0.0117172,-0.0118315,-0.0119115,-0.0119482,-0.0119562,-0.0119404,-0.0118819,-0.0117862,-0.0116533,-0.0114799,-0.0112676,-0.0110066,-0.0107136,-0.0103931,-0.0100342,-0.00964061,-0.00920891,-0.00874354,-0.00824566,-0.00770982,-0.0071513,-0.00657543,-0.0059792,-0.0053696,-0.0047455,-0.00411337,-0.00347842,-0.00284746,-0.00222237,-0.00161202,-0.00103496,-0.000497332,-0
-0,0.000674775,0.00136748,0.0020682,0.00277118,0.00346939,0.00415822,0.00483052,0.00548118,0.00610862,0.0067088,0.00728104,0.00782049,0.00832529,0.00879712,0.00923317,0.0096351,0.00999983,0.0103279,0.0106226,0.0108816,0.0111069,0.0113015,0.011462,0.0115895,0.0116881,0.0117563,0.0117986,0.011813,0.0118004,0.0117647,0.0117032,0.0116181,0.0115139,0.0113884,0.0112417,0.0110767,0.0108907,0.0106871,0.0104689,0.0102345,0.00998404,0.00971744,0.00943256,0.009134,0.00882643,0.00850523,0.00816913,0.00781928,0.00745266,0.00707489,0.00669258,0.00629861,0.00588976,0.00546899,0.00503287,0.00458745,0.0041415,0.00368574,0.00321592,0.00273641,0.00224869,0.0017447,0.0012418,0.000742392,0.000228721,-0.00029215,-0.000818189,-0.0013519,-0.00188876,-0.00241956,-0.0029504,-0.00348589,-0.00402174,-0.00455978,-0.00509151,-0.00561575,-0.00613554,-0.00664715,-0.00715266,-0.00764921,-0.00813721,-0.0086103,-0.00906364,-0.00950392,-0.00992957,-0.0103354,-0.0107205,-0.0110841,-0.011423,-0.0117291,-0.012012,-0.0122733,-0.0125013,-0.0126959,-0.0128565,-0.0129833,-0.0130742,-0.0131177,-0.013129,-0.0131129,-0.0130521,-0.0129469,-0.0128018,-0.0126168,-0.0123879,-0.0121063,-0.0117892,-0.0114446,-0.0110516,-0.0106209,-0.0101547,-0.00964863,-0.00910854,-0.00852623,-0.00791834,-0.00729586,-0.00664297,-0.00597243,-0.00529133,-0.00459864,-0.00390173,-0.00320575,-0.00251302,-0.00183786,-0.00118749,-0.000571222,-0
-0,0.000764208,0.00154247,0.00232473,0.00310255,0.00387147,0.00462577,0.00536176,0.00607261,0.00675395,0.00740545,0.00802424,0.00860988,0.00915741,0.00966547,0.0101363,0.0105682,0.0109633,0.0113183,0.0116334,0.0119124,0.0121545,0.0123614,0.0125354,0.0126732,0.012776,0.0128485,0.0128909,0.0129065,0.0128921,0.0128495,0.0127817,0.0126879,0.0125716,0.0124345,0.0122746,0.0120926,0.0118893,0.0116662,0.0114273,0.0111712,0.0108973,0.0106062,0.0102954,0.00996961,0.00963182,0.00928073,0.00891506,0.00853323,0.00813348,0.0077224,0.00730201,0.00687026,0.00642676,0.005968,0.00549238,0.00500886,0.00451831,0.00401772,0.00350872,0.00298628,0.00245415,0.00190816,0.0013556,0.000805967,0.000249192,-0.000318162,-0.000891734,-0.00146989,-0.00205887,-0.00264318,-0.00321943,-0.00380269,-0.00438696,-0.00496985,-0.00555226,-0.00612959,-0.0066952,-0.00725257,-0.00780364,-0.00834517,-0.00887432,-0.00939205,-0.0098919,-0.010372,-0.010836,-0.0112791,-0.0116993,-0.0120948,-0.012465,-0.0128026,-0.0131131,-0.0133987,-0.0136485,-0.013862,-0.0140387,-0.0141768,-0.0142773,-0.0143293,-0.0143444,-0.0143288,-0.0142648,-0.0141547,-0.0139965,-0.0137952,-0.0135511,-0.0132484,-0.0129071,-0.0125351,-0.0121145,-0.0116454,-0.0111372,-0.0105926,-0.0100073,-0.00937731,-0.00871948,-0.00804402,-0.00733992,-0.00660859,-0.00586135,-0.00510707,-0.00434442,-0.00358118,-0.0028179,-0.00206981,-0.00134998,-0.000654224,-0