-0,-0.000606403,-0.00203231,-0.0035154,-0.00466396,-0.00500006,-0.00421184,-0.00251195,0.000101345,0.00338856,0.00779817,0.0132738,0.0194212,0.0262869,0.033759,0.0414975,0.0503304,0.0597745,0.0694478,0.079515,0.0893142,0.100453,0.111587,0.122789,0.134151,0.145555,0.156379,0.16882,0.18064,0.192334,0.20405,0.215596,0.226189,0.238879,0.25024,0.261433,0.272557,0.28338,0.292973,0.305025,0.315228,0.325213,0.335079,0.344578,0.352703,0.363282,0.371865,0.380143,0.388227,0.395918,0.402281,0.410556,0.417128,0.423311,0.429159,0.434607,0.438989,0.44416,0.44833,0.452056,0.455273,0.458077,0.460374,0.462239,0.462926,0.463808,0.464198,0.46392,0.463243,0.461865,0.461018,0.456695,0.453817,0.450449,0.446373,0.441948,0.436718,0.432933,0.42383,0.41697,0.409705,0.40182,0.393697,0.384811,0.378059,0.36515,0.354639,0.343882,0.332685,0.321426,0.309604,0.300221,0.285143,0.272062,0.258903,0.245607,0.232404,0.219042,0.205678,0.194477,0.179546,0.165743,0.152186,0.138841,0.125901,0.113263,0.10099,0.0903537,0.0787494,0.0675506,0.0568622,0.046903,0.0375385,0.0290692,0.0213175,0.0144111,0.00947795,0.00443559,0.000228826,-0.00289837,-0.00522783,-0.00640008,-0.00666227,-0.00596245,-0.00623522,-0.00242615,-0.000760037,-0
-0.000606403,-0.000769537,-0.000846511,-0.000843603,-0.000552595,0.000192817,0.00157983,0.00373378,0.00663896,0.0103016,0.0146357,0.0197369,0.0255749,0.0320419,0.0391132,0.0467138,0.0547236,0.0633137,0.072348,0.0817267,0.0914296,0.101243,0.111543,0.121997,0.132618,0.143365,0.154179,0.164884,0.175982,0.18697,0.19795,0.208887,0.219724,0.230253,0.24117,0.251734,0.262182,0.272465,0.282532,0.292151,0.302145,0.311616,0.320884,0.329898,0.338615,0.346798,0.355272,0.363142,0.37073,0.377987,0.384887,0.391225,0.397654,0.403491,0.408973,0.414053,0.418726,0.422862,0.426774,0.430183,0.433172,0.435698,0.437778,0.439387,0.44058,0.441057,0.441205,0.440867,0.440023,0.438722,0.436862,0.434816,0.431525,0.428109,0.42416,0.419717,0.414842,0.409386,0.403985,0.396983,0.390005,0.382501,0.374573,0.366292,0.357495,0.348977,0.338801,0.32874,0.318245,0.307451,0.29645,0.285096,0.274197,0.26194,0.249862,0.237534,0.225116,0.21268,0.200166,0.187683,0.175738,0.163169,0.150855,0.13864,0.126629,0.114918,0.103501,0.092456,0.0820707,0.0719561,0.0622897,0.0531158,0.0445336,0.0365549,0.0292843,0.0227211,0.0168586,0.0121064,0.00798535,0.00464628,0.00211409,0.000287094,-0.000792764,-0.00129146,-0.00129821,-0.0015606,-0.000920296,-0.000760037
-0.00197744,-0.000904887,0.000349722,0.00159331,0.00297551,0.00465895,0.00675768,0.00936967,0.0125595,0.0163431,0.0207299,0.0256951,0.0312485,0.0373673,0.0440033,0.0511314,0.0587061,0.0666735,0.0750413,0.0837554,0.0927626,0.102039,0.111503,0.121218,0.131085,0.141079,0.15118,0.161342,0.171512,0.18177,0.192005,0.202201,0.21236,0.222431,0.232366,0.242284,0.252039,0.26164,0.271095,0.280353,0.289371,0.298289,0.306943,0.315352,0.323532,0.331434,0.339019,0.346423,0.353488,0.360239,0.366686,0.372791,0.378522,0.383978,0.389046,0.39374,0.398061,0.401989,0.405503,0.408633,0.411344,0.413635,0.415491,0.416914,0.417891,0.418442,0.418473,0.418074,0.417218,0.415877,0.414083,0.411793,0.40912,0.405806,0.402085,0.3979,0.393224,0.388111,0.382503,0.376588,0.369992,0.363043,0.355676,0.34787,0.339699,0.331102,0.322315,0.312923,0.303279,0.29333,0.283071,0.272586,0.261826,0.251033,0.239844,0.228564,0.217167,0.205671,0.194152,0.182596,0.171086,0.159745,0.148398,0.137208,0.126206,0.11542,0.104918,0.0947137,0.0848713,0.0754713,0.0664972,0.0579886,0.0499901,0.0425483,0.0356847,0.0294402,0.0238269,0.0188446,0.0145971,0.0109806,0.00797927,0.00558277,0.00368257,0.00221673,0.00102237,3.58051e-05,-0.00156317,-0.00244092
-0.00361319,-0.000945801,0.00159206,0.00392013,0.00623689,0.0086874,0.0113907,0.0144364,0.0178897,0.0217946,0.026172,0.0310323,0.0363694,0.0421729,0.0484263,0.0551019,0.0621793,0.0696251,0.0774076,0.0854978,0.0938669,0.102477,0.111307,0.120313,0.129481,0.138774,0.148162,0.157632,0.167144,0.176676,0.18621,0.195725,0.205188,0.214603,0.223926,0.233146,0.242253,0.251228,0.260043,0.268709,0.277183,0.285462,0.293538,0.301397,0.309011,0.3164,0.323518,0.330367,0.336943,0.34323,0.349207,0.354889,0.360241,0.365262,0.369947,0.374284,0.378258,0.381874,0.385111,0.387966,0.390432,0.3925,0.394164,0.395416,0.396256,0.396671,0.396666,0.396225,0.395348,0.394042,0.392281,0.390092,0.387451,0.384389,0.380869,0.376914,0.372537,0.367703,0.362465,0.356792,0.350739,0.344258,0.33739,0.33016,0.32253,0.314571,0.306257,0.297656,0.288728,0.279523,0.270077,0.260361,0.250453,0.24034,0.230099,0.219702,0.209207,0.198654,0.188037,0.177425,0.166828,0.156297,0.145873,0.135576,0.125447,0.115537,0.105856,0.0964602,0.0873734,0.0786381,0.0702911,0.0623619,0.0548814,0.0478788,0.0413804,0.0353964,0.0299464,0.0250284,0.0206367,0.0167607,0.0133648,0.0103851,0.00777425,0.00539961,0.00317886,0.00100303,-0.00125025,-0.00626462
-0.00483063,-0.000640351,0.00298239,0.00624754,0.00935986,0.0124604,0.0156664,0.0190735,0.0227539,0.0267584,0.0311223,0.0358653,0.0409962,0.0465138,0.0524086,0.058669,0.0652756,0.072209,0.0794443,0.0869578,0.0947203,0.10271,0.110898,0.11926,0.127767,0.136393,0.145118,0.153913,0.16276,0.17163,0.180507,0.189362,0.198188,0.206952,0.215648,0.224249,0.232745,0.24111,0.249344,0.257417,0.265328,0.273052,0.280585,0.287904,0.295012,0.301882,0.308515,0.314891,0.321006,0.326841,0.332398,0.337657,0.342618,0.347263,0.35159,0.355585,0.359246,0.362559,0.365522,0.368125,0.370361,0.372225,0.37371,0.374812,0.375523,0.375841,0.375761,0.37528,0.3744,0.373107,0.371413,0.369304,0.366791,0.363866,0.360539,0.356814,0.352682,0.348164,0.343246,0.337953,0.332277,0.326239,0.319852,0.31311,0.306047,0.298653,0.290963,0.282976,0.274721,0.266222,0.257481,0.248538,0.239397,0.230096,0.220646,0.211083,0.201436,0.191721,0.181981,0.172231,0.162512,0.152846,0.143269,0.13381,0.12451,0.11539,0.106492,0.0978389,0.0894651,0.0813966,0.0736624,0.0662872,0.059296,0.0527101,0.0465429,0.0408079,0.0355045,0.0306309,0.0261686,0.0220916,0.0183526,0.0149042,0.0116559,0.00852227,0.00537494,0.00216559,-0.00130898,-0.00543946
-0.00506592,0.000169108,0.00468277,0.00872114,0.0124898,0.0161221,0.0197374,0.0234336,0.0272879,0.0313589,0.0356893,0.040308,0.0452326,0.0504713,0.0560247,0.061887,0.0680482,0.0744937,0.081207,0.0881687,0.0953584,0.102754,0.110333,0.118072,0.125951,0.133944,0.14203,0.150188,0.158394,0.16663,0.174874,0.183107,0.191309,0.199464,0.207552,0.215558,0.223465,0.231259,0.238922,0.246444,0.253806,0.261,0.268011,0.274827,0.281435,0.287827,0.293988,0.299912,0.305585,0.311,0.316146,0.321016,0.325598,0.329887,0.333873,0.337549,0.340907,0.343941,0.346643,0.349008,0.351028,0.3527,0.354017,0.354975,0.35557,0.355798,0.355655,0.355139,0.354249,0.352983,0.351339,0.349319,0.346921,0.344148,0.341001,0.337485,0.333605,0.329362,0.324766,0.319818,0.31453,0.308907,0.302961,0.296707,0.29015,0.283309,0.276192,0.268817,0.261197,0.253352,0.245303,0.237065,0.228663,0.220112,0.211439,0.202663,0.193811,0.184908,0.175979,0.167053,0.158153,0.149307,0.140542,0.131886,0.123365,0.11501,0.106846,0.0989009,0.0911978,0.0837611,0.0766115,0.0697686,0.0632487,0.057065,0.0512265,0.0457353,0.0405882,0.0357714,0.0312631,0.0270281,0.0230189,0.0191713,0.0154087,0.0116225,0.00771534,0.00358151,-0.000890138,-0.00624648
-0.00437691,0.00162871,0.00680861,0.0114656,0.0157489,0.0197953,0.0237244,0.0276346,0.0316059,0.0357019,0.0399711,0.0444492,0.0491612,0.0541223,0.0593404,0.064817,0.070548,0.0765257,0.0827384,0.0891724,0.0958115,0.102638,0.109634,0.11678,0.124055,0.131441,0.138917,0.146462,0.154058,0.161685,0.169324,0.176956,0.184565,0.192133,0.199642,0.207078,0.214423,0.221665,0.228787,0.235776,0.24262,0.249304,0.255817,0.262148,0.268285,0.274216,0.279933,0.285423,0.290679,0.29569,0.300449,0.304946,0.309173,0.313122,0.316787,0.320159,0.323233,0.326001,0.328459,0.330599,0.332417,0.333909,0.335069,0.335894,0.33638,0.336525,0.336325,0.33578,0.334886,0.333645,0.332055,0.330118,0.327834,0.325205,0.322233,0.318923,0.315278,0.311305,0.307008,0.302394,0.297469,0.292244,0.286727,0.280929,0.274862,0.268537,0.261969,0.255169,0.248153,0.240937,0.233539,0.225976,0.218268,0.210433,0.202491,0.194463,0.18637,0.178236,0.170082,0.161933,0.153812,0.145742,0.137747,0.12985,0.122076,0.114447,0.106986,0.0997139,0.0926517,0.0858172,0.0792267,0.0728935,0.0668283,0.0610376,0.0555233,0.050282,0.0453028,0.0405671,0.0360464,0.0317016,0.0274808,0.0233189,0.019134,0.0148289,0.0102745,0.00541808,7.12877e-05,-0.00610547
-0.00257754,0.00375376,0.00946124,0.0145787,0.0192374,0.0235825,0.0277296,0.0317766,0.0358045,0.0398795,0.0440544,0.0483697,0.0528558,0.057534,0.0624179,0.0675147,0.0728261,0.0783495,0.0840783,0.0900032,0.0961125,0.102393,0.108828,0.115403,0.1221,0.128902,0.135792,0.14275,0.14976,0.156803,0.163862,0.170919,0.177959,0.184964,0.191919,0.198808,0.205616,0.212329,0.218933,0.225414,0.231761,0.237959,0.243998,0.249866,0.255553,0.261047,0.266338,0.271418,0.276276,0.280905,0.285296,0.28944,0.29333,0.296958,0.300319,0.303405,0.306211,0.30873,0.310957,0.312887,0.314516,0.315839,0.316854,0.317555,0.317942,0.318011,0.31776,0.317189,0.316296,0.315082,0.313547,0.311692,0.309518,0.307029,0.304226,0.301114,0.297698,0.293981,0.289972,0.285675,0.281099,0.276252,0.271143,0.265781,0.260179,0.254348,0.248299,0.242046,0.235603,0.228985,0.222207,0.215285,0.208238,0.201081,0.193834,0.186516,0.179144,0.17174,0.164323,0.156914,0.149533,0.142201,0.134939,0.127765,0.1207,0.113763,0.106973,0.100346,0.0938973,0.0876413,0.0815888,0.0757485,0.0701254,0.0647207,0.0595308,0.0545465,0.0497519,0.0451232,0.040628,0.0362233,0.031855,0.0274565,0.0229478,0.0182268,0.0131927,0.00772025,0.00173975,-0.00512459
-5.38833e-05,0.00661531,0.0127234,0.0181295,0.0230337,0.027566,0.0318377,0.0359443,0.0399665,0.0439718,0.0480152,0.0521409,0.0563833,0.0607681,0.0653137,0.070032,0.0749295,0.0800079,0.0852651,0.0906959,0.0962921,0.102044,0.107938,0.113963,0.120103,0.126344,0.13267,0.139064,0.14551,0.151992,0.158494,0.165,0.171494,0.17796,0.184383,0.190748,0.197042,0.203249,0.209357,0.215353,0.221225,0.226959,0.232546,0.237973,0.24323,0.248308,0.253195,0.257884,0.262366,0.266631,0.270673,0.274483,0.278054,0.28138,0.284454,0.287271,0.289824,0.292108,0.29412,0.295853,0.297306,0.298473,0.299352,0.29994,0.300235,0.300235,0.29994,0.299349,0.29846,0.297276,0.295796,0.294022,0.291957,0.289604,0.286964,0.284044,0.280846,0.277378,0.273644,0.269651,0.265408,0.260922,0.256201,0.251257,0.246098,0.240736,0.235183,0.229451,0.223553,0.217503,0.211314,0.205003,0.198584,0.192074,0.185488,0.178843,0.172158,0.165448,0.158732,0.152028,0.145353,0.138724,0.13216,0.125676,0.119288,0.113013,0.106865,0.100856,0.0949974,0.0892991,0.0837676,0.0784069,0.0732173,0.0681954,0.063333,0.0586162,0.0540249,0.0495316,0.0451004,0.0406863,0.0362336,0.0316753,0.0269326,0.0219144,0.0165036,0.0106039,0.00405582,-0.00311546
0.00315364,0.0103523,0.0166138,0.0221714,0.0271966,0.0318107,0.0361168,0.0402074,0.0441617,0.0480471,0.0519197,0.055826,0.0598031,0.0638803,0.0680796,0.0724167,0.076902,0.081541,0.0863354,0.0912832,0.0963799,0.101618,0.106989,0.112481,0.118084,0.123783,0.129565,0.135415,0.14132,0.147263,0.15323,0.159205,0.165175,0.171123,0.177036,0.1829,0.188701,0.194424,0.200058,0.20559,0.211008,0.2163,0.221454,0.226461,0.23131,0.235991,0.240495,0.244813,0.248937,0.252858,0.25657,0.260064,0.263334,0.266374,0.269178,0.271741,0.274057,0.276122,0.277931,0.279481,0.280769,0.281791,0.282545,0.283029,0.283242,0.283181,0.282848,0.28224,0.28136,0.280207,0.278784,0.277092,0.275134,0.272912,0.270432,0.267696,0.26471,0.26148,0.258011,0.254311,0.250386,0.246245,0.241897,0.23735,0.232615,0.227701,0.222621,0.217385,0.212007,0.206497,0.200871,0.19514,0.18932,0.183424,0.177468,0.171467,0.165434,0.159387,0.153339,0.147307,0.141304,0.135347,0.12945,0.123625,0.117886,0.112246,0.106713,0.101299,0.0960101,0.0908518,0.0858271,0.0809357,0.0761742,0.0715349,0.0670056,0.062569,0.0582014,0.0538725,0.0495443,0.0451701,0.040694,0.0360496,0.0311602,0.0259374,0.0202791,0.0140684,0.00714567,-0.000489968
0.00767461,0.0148697,0.0211568,0.0267335,0.0317694,0.0363658,0.040621,0.044623,0.0484483,0.0521634,0.0558247,0.0594798,0.0631678,0.0669203,0.0707622,0.0747122,0.0787839,0.082986,0.0873231,0.0917965,0.0964043,0.101142,0.106003,0.110979,0.11606,0.121235,0.126492,0.131818,0.1372,0.142624,0.148076,0.153541,0.159007,0.164459,0.169883,0.175266,0.180594,0.185855,0.191035,0.196124,0.201108,0.205977,0.210721,0.215327,0.219787,0.224092,0.228231,0.232197,0.235981,0.239577,0.242975,0.246171,0.249157,0.251928,0.254478,0.256803,0.258896,0.260756,0.262377,0.263756,0.264891,0.26578,0.266419,0.266808,0.266946,0.266832,0.266465,0.265848,0.264979,0.263861,0.262495,0.260885,0.259032,0.25694,0.254614,0.252058,0.249277,0.246276,0.243063,0.239643,0.236024,0.232214,0.228222,0.224055,0.219725,0.21524,0.210611,0.20585,0.200967,0.195973,0.190882,0.185706,0.180457,0.175148,0.169792,0.164404,0.158995,0.153579,0.148169,0.142779,0.13742,0.132105,0.126846,0.121653,0.116537,0.111506,0.106567,0.101727,0.0969894,0.0923561,0.0878265,0.0833969,0.0790602,0.0748053,0.0706169,0.0664745,0.0623519,0.0582167,0.0540294,0.0497427,0.0453012,0.0406401,0.0356846,0.0303521,0.024558,0.0181324,0.0109899,0.00318271
0.0130785,0.0201844,0.0263428,0.0318343,0.0367798,0.0412677,0.0453924,0.0492365,0.052874,0.0563693,0.0597787,0.0631499,0.0665233,0.0699321,0.0734033,0.0769579,0.0806121,0.084377,0.08826,0.0922649,0.0963922,0.10064,0.105003,0.109476,0.114051,0.118718,0.123466,0.128285,0.133162,0.138085,0.143041,0.148016,0.152998,0.157972,0.162927,0.167849,0.172724,0.177542,0.182289,0.186953,0.191524,0.19599,0.200341,0.204567,0.208657,0.212603,0.216397,0.220029,0.223492,0.226779,0.229882,0.232796,0.235515,0.238032,0.240344,0.242444,0.24433,0.245998,0.247443,0.248664,0.249658,0.250423,0.250957,0.251261,0.251332,0.251171,0.250778,0.250154,0.249301,0.24822,0.246914,0.245385,0.243637,0.241673,0.239497,0.237115,0.234533,0.231754,0.228787,0.225637,0.222312,0.21882,0.215169,0.211368,0.207425,0.20335,0.199153,0.194845,0.190435,0.185935,0.181356,0.176709,0.172005,0.167257,0.162475,0.157672,0.152859,0.148047,0.143247,0.138471,0.133729,0.12903,0.124383,0.119798,0.11528,0.110836,0.106471,0.102187,0.0979851,0.0938643,0.0898205,0.085847,0.0819337,0.0780667,0.0742279,0.0703945,0.0665383,0.0626255,0.0586156,0.0544615,0.0501088,0.0454946,0.0405484,0.0351887,0.0293432,0.0229429,0.0154174,0.00745511
0.0195086,0.0262278,0.0321592,0.0374863,0.0422457,0.0465426,0.0504626,0.0540841,0.0574774,0.0607052,0.0638226,0.0668771,0.0699096,0.0729545,0.07604,0.0791891,0.0824197,0.0857453,0.0891752,0.0927154,0.0963684,0.100134,0.10401,0.107992,0.112073,0.116246,0.120502,0.124829,0.129218,0.133657,0.138135,0.142637,0.147153,0.151669,0.156173,0.160652,0.165094,0.169487,0.173819,0.178079,0.182255,0.186336,0.190314,0.194176,0.197915,0.201522,0.204986,0.208302,0.211461,0.214457,0.217282,0.21993,0.222397,0.224676,0.226764,0.228655,0.230347,0.231835,0.233118,0.234192,0.235056,0.235708,0.236147,0.236373,0.236385,0.236184,0.23577,0.235146,0.234312,0.233271,0.232025,0.230578,0.228934,0.227095,0.225067,0.222856,0.220465,0.217902,0.215173,0.212283,0.209242,0.206056,0.202733,0.199281,0.19571,0.192029,0.188246,0.184371,0.180415,0.176387,0.172298,0.168157,0.163975,0.159763,0.15553,0.151287,0.147045,0.142811,0.138597,0.13441,0.130259,0.126151,0.122094,0.118093,0.114153,0.110277,0.106467,0.102723,0.0990434,0.0954242,0.0918587,0.0883374,0.0848476,0.081373,0.0778933,0.0743839,0.070815,0.0671519,0.0633539,0.0593744,0.0551602,0.0506514,0.0457801,0.0404731,0.0346508,0.0282721,0.0212178,0.0115617
0.0267325,0.032901,0.0386366,0.0436836,0.0481778,0.0522079,0.0558553,0.0591935,0.0622897,0.0652042,0.0679906,0.070696,0.0733612,0.0760211,0.078705,0.0814371,0.0842368,0.0871191,0.0900953,0.0931728,0.0963561,0.0996468,0.103044,0.106545,0.110144,0.113836,0.117611,0.121462,0.125379,0.12935,0.133365,0.137412,0.141479,0.145554,0.149624,0.153679,0.157705,0.161692,0.165627,0.1695,0.173299,0.177015,0.180636,0.184154,0.187559,0.190842,0.193996,0.197012,0.199884,0.202604,0.205166,0.207565,0.209795,0.211851,0.213729,0.215425,0.216935,0.218257,0.219389,0.220327,0.221072,0.221621,0.221974,0.22213,0.222091,0.221857,0.221428,0.220807,0.219997,0.218998,0.217815,0.21645,0.214909,0.213194,0.211311,0.209266,0.207063,0.204708,0.202209,0.199572,0.196803,0.193912,0.190905,0.18779,0.184576,0.181272,0.177886,0.174428,0.170907,0.167331,0.163711,0.160056,0.156374,0.152676,0.14897,0.145265,0.141569,0.137891,0.134238,0.130617,0.127035,0.123497,0.120008,0.116571,0.113189,0.109863,0.106593,0.103375,0.100206,0.0970798,0.0939866,0.0909148,0.0878496,0.0847725,0.0816616,0.0784907,0.0752291,0.0718416,0.0682874,0.0645208,0.0604904,0.0561387,0.0514032,0.0462103,0.040497,0.0341937,0.0272626,0.019555
0.0342127,0.0403805,0.0457363,0.0504266,0.0545788,0.0582745,0.0615868,0.0645857,0.0673351,0.0698929,0.0723111,0.0746358,0.0769075,0.0791613,0.0814271,0.0837298,0.08609,0.0885241,0.0910443,0.0936599,0.0963766,0.0991974,0.102123,0.105151,0.108279,0.1115,0.114809,0.118197,0.121655,0.125173,0.128741,0.132348,0.135982,0.139632,0.143287,0.146934,0.150562,0.154159,0.157715,0.161218,0.164658,0.168024,0.171307,0.174496,0.177584,0.180562,0.183421,0.186154,0.188754,0.191214,0.193529,0.195693,0.197701,0.199547,0.201229,0.202743,0.204085,0.205253,0.206245,0.207059,0.207694,0.208149,0.208425,0.20852,0.208437,0.208175,0.207737,0.207125,0.206341,0.205387,0.204268,0.202987,0.201548,0.199956,0.198216,0.196333,0.194312,0.192161,0.189885,0.187492,0.184988,0.18238,0.179678,0.176887,0.174018,0.171077,0.168073,0.165015,0.161911,0.15877,0.155601,0.152412,0.14921,0.146006,0.142805,0.139616,0.136447,0.133302,0.13019,0.127114,0.12408,0.121092,0.118151,0.115261,0.11242,0.109629,0.106884,0.10418,0.101512,0.0988712,0.0962454,0.0936214,0.0909824,0.0883083,0.0855758,0.0827574,0.0798219,0.0767336,0.0734525,0.0699335,0.066127,0.0619786,0.0574286,0.0524146,0.0468572,0.0407218,0.0339329,0.0265506
0.0428204,0.0485477,0.0534435,0.0577046,0.0614495,0.064748,0.0676682,0.0702763,0.0726327,0.074793,0.0768073,0.0787209,0.0805736,0.0824003,0.0842311,0.0860917,0.0880031,0.0899828,0.0920441,0.0941973,0.0964492,0.098804,0.101263,0.103827,0.106492,0.109253,0.112106,0.115043,0.118055,0.121134,0.12427,0.127451,0.130668,0.13391,0.137164,0.140419,0.143665,0.14689,0.150083,0.153233,0.15633,0.159363,0.162324,0.165202,0.167989,0.170676,0.173256,0.175722,0.178066,0.180282,0.182364,0.184307,0.186106,0.187757,0.189256,0.1906,0.191786,0.192812,0.193675,0.194375,0.19491,0.195281,0.195488,0.19553,0.195409,0.195126,0.194684,0.194085,0.193331,0.192425,0.191372,0.190175,0.188839,0.187368,0.185768,0.184044,0.182202,0.180248,0.17819,0.176033,0.173785,0.171453,0.169044,0.166567,0.164029,0.161438,0.158802,0.156129,0.153428,0.150705,0.14797,0.145229,0.14249,0.13976,0.137046,0.134355,0.131692,0.129062,0.126471,0.123921,0.121417,0.11896,0.116551,0.11419,0.111876,0.109605,0.107373,0.105173,0.102997,0.100835,0.0986725,0.0964953,0.0942845,0.0920189,0.0896738,0.087221,0.0846288,0.0818615,0.0788795,0.0756389,0.0720919,0.0681866,0.0638679,0.059074,0.0537493,0.0478021,0.0412396,0.0341581
0.0521424,0.0573776,0.0617346,0.0655027,0.0687846,0.0716296,0.0741063,0.0762761,0.0781966,0.0799211,0.0814981,0.0829715,0.0843804,0.0857595,0.0871387,0.0885439,0.0899969,0.0915155,0.093114,0.0948034,0.0965915,0.0984834,0.100482,0.102587,0.104796,0.107107,0.109514,0.112011,0.11459,0.117243,0.119959,0.12273,0.125544,0.128391,0.13126,0.134139,0.137019,0.139887,0.142732,0.145545,0.148315,0.151031,0.153685,0.156268,0.158769,0.161182,0.163498,0.165711,0.167814,0.169799,0.171663,0.173399,0.175004,0.176472,0.177801,0.178987,0.180028,0.180922,0.181668,0.182263,0.182709,0.183004,0.183149,0.183145,0.182994,0.182696,0.182255,0.181673,0.180953,0.180098,0.179112,0.178,0.176766,0.175416,0.173954,0.172386,0.170719,0.168959,0.167112,0.165185,0.163185,0.16112,0.158996,0.156822,0.154604,0.152351,0.150071,0.14777,0.145456,0.143137,0.140819,0.138511,0.136217,0.133946,0.131702,0.12949,0.127316,0.125184,0.123096,0.121056,0.119065,0.117123,0.11523,0.113384,0.111582,0.109819,0.108089,0.106384,0.104692,0.103003,0.101302,0.0995706,0.0977905,0.0959385,0.0939893,0.0919141,0.0896807,0.0872537,0.0845939,0.0816588,0.0784022,0.0747744,0.0707232,0.0661976,0.0611315,0.0554453,0.0490799,0.0424608
0.06233,0.0668333,0.0705611,0.0738153,0.0765755,0.0789182,0.0809041,0.0825922,0.0840373,0.0852905,0.0863986,0.0874042,0.0883457,0.089257,0.0901682,0.0911051,0.0920896,0.09314,0.0942712,0.0954948,0.0968192,0.0982502,0.0997913,0.101443,0.103205,0.105073,0.107044,0.109112,0.111268,0.113506,0.115816,0.118189,0.120614,0.12308,0.125578,0.128097,0.130624,0.13315,0.135664,0.138154,0.140612,0.143027,0.14539,0.147691,0.149922,0.152075,0.154142,0.156117,0.157992,0.159761,0.16142,0.162962,0.164385,0.165683,0.166853,0.167894,0.168801,0.169574,0.170212,0.170713,0.171077,0.171305,0.171397,0.171354,0.171179,0.170872,0.170436,0.169875,0.169192,0.16839,0.167474,0.166448,0.165317,0.164086,0.162761,0.161348,0.159852,0.158281,0.15664,0.154937,0.153179,0.151373,0.149525,0.147645,0.145738,0.143812,0.141875,0.139933,0.137994,0.136065,0.134152,0.132261,0.130398,0.128569,0.126779,0.125032,0.123331,0.12168,0.120081,0.118534,0.117041,0.1156,0.114209,0.112865,0.111564,0.110298,0.10906,0.107841,0.106627,0.105407,0.104164,0.102879,0.101531,0.100098,0.0985521,0.096865,0.0950042,0.0929344,0.0906172,0.0880109,0.0850712,0.0817503,0.0779987,0.0737679,0.0690036,0.0636108,0.0574934,0.0510784
0.0732874,0.0767346,0.0799579,0.0826199,0.0848157,0.0866096,0.0880622,0.0892288,0.090162,0.0909108,0.0915205,0.0920323,0.0924838,0.0929083,0.0933354,0.093791,0.094297,0.0948719,0.0955309,0.096286,0.0971463,0.098118,0.0992049,0.100408,0.101728,0.103162,0.104705,0.106352,0.108097,0.109931,0.111846,0.113833,0.115882,0.117982,0.120123,0.122293,0.124483,0.126681,0.128877,0.131061,0.133221,0.135349,0.137434,0.139469,0.141444,0.143351,0.145183,0.146933,0.148594,0.15016,0.151627,0.152988,0.154241,0.155381,0.156405,0.15731,0.158095,0.158757,0.159296,0.159712,0.160004,0.160172,0.160218,0.160143,0.159949,0.159639,0.159214,0.158678,0.158036,0.15729,0.156445,0.155506,0.154478,0.153366,0.152176,0.150915,0.149588,0.148202,0.146763,0.145279,0.143756,0.142202,0.140623,0.139027,0.137422,0.135813,0.134209,0.132616,0.13104,0.129489,0.127967,0.126481,0.125036,0.123636,0.122286,0.120989,0.119747,0.118563,0.117438,0.116371,0.115363,0.114409,0.113508,0.112655,0.111843,0.111065,0.110311,0.10957,0.108829,0.108074,0.107286,0.106447,0.105534,0.104524,0.103388,0.102099,0.100623,0.0989247,0.0969672,0.0947097,0.0921091,0.0891199,0.0856942,0.0817873,0.0773574,0.0722618,0.066482,0.0603747
0.0840693,0.0873223,0.0898803,0.0919078,0.0934934,0.0946989,0.0955792,0.096188,0.0965756,0.0967894,0.096873,0.0968666,0.0968066,0.0967259,0.0966536,0.0966152,0.0966327,0.0967246,0.0969063,0.09719,0.0975852,0.0980983,0.0987336,0.099493,0.100376,0.101381,0.102504,0.10374,0.105083,0.106524,0.108056,0.109669,0.111353,0.113099,0.114895,0.116731,0.118597,0.120481,0.122373,0.124263,0.12614,0.127994,0.129817,0.131598,0.133331,0.135006,0.136616,0.138154,0.139614,0.14099,0.142277,0.143469,0.144564,0.145557,0.146445,0.147226,0.147898,0.148459,0.14891,0.149248,0.149476,0.149593,0.1496,0.149499,0.149293,0.148983,0.148574,0.148068,0.147469,0.146781,0.146009,0.145158,0.144234,0.143241,0.142186,0.141074,0.139913,0.138709,0.137468,0.136198,0.134905,0.133597,0.13228,0.130962,0.12965,0.12835,0.127069,0.125815,0.124592,0.123407,0.122266,0.121173,0.120133,0.11915,0.118227,0.117367,0.116572,0.115843,0.115179,0.114581,0.114045,0.113568,0.113146,0.112772,0.11244,0.112141,0.111863,0.111595,0.111322,0.111028,0.110694,0.110301,0.109825,0.109241,0.108522,0.107638,0.106556,0.105243,0.103659,0.101767,0.0995241,0.0968865,0.0938093,0.0902471,0.0861641,0.0815013,0.0758353,0.070073
0.0959563,0.0984573,0.100313,0.101664,0.102601,0.10318,0.103452,0.10347,0.103281,0.102931,0.102463,0.101915,0.101324,0.10072,0.100134,0.0995891,0.0991083,0.0987097,0.0984088,0.0982179,0.0981465,0.0982015,0.0983873,0.0987059,0.0991575,0.0997402,0.10045,0.101283,0.102232,0.10329,0.104449,0.105698,0.10703,0.108433,0.109897,0.111412,0.112966,0.114549,0.11615,0.117759,0.119366,0.12096,0.122533,0.124075,0.125578,0.127034,0.128435,0.129774,0.131045,0.132243,0.133362,0.134397,0.135345,0.136202,0.136965,0.137631,0.1382,0.13867,0.13904,0.13931,0.139481,0.139553,0.139528,0.139408,0.139195,0.138892,0.138502,0.138029,0.137476,0.136849,0.136153,0.135391,0.13457,0.133696,0.132775,0.131812,0.130815,0.12979,0.128743,0.127683,0.126615,0.125548,0.124487,0.12344,0.122414,0.121415,0.12045,0.119525,0.118645,0.117818,0.117047,0.116336,0.115691,0.115114,0.114608,0.114175,0.113815,0.113529,0.113317,0.113175,0.113101,0.11309,0.113137,0.113235,0.113375,0.113547,0.11374,0.113938,0.114129,0.114293,0.114411,0.114463,0.114425,0.114271,0.113973,0.113502,0.112823,0.111904,0.110707,0.109193,0.107323,0.105053,0.10234,0.0991438,0.0954185,0.0911165,0.0862317,0.0794475
0.108316,0.110129,0.111242,0.111868,0.112127,0.112045,0.111677,0.111073,0.110279,0.10934,0.108296,0.107185,0.106043,0.1049,0.103785,0.102722,0.101734,0.100837,0.100048,0.0993792,0.0988397,0.0984366,0.0981743,0.0980552,0.0980794,0.0982451,0.0985489,0.0989859,0.0995499,0.100234,0.101029,0.101926,0.102915,0.103987,0.105131,0.106336,0.107591,0.108885,0.110208,0.111549,0.112898,0.114245,0.11558,0.116895,0.118181,0.11943,0.120634,0.121786,0.122881,0.123912,0.124874,0.125763,0.126574,0.127305,0.127953,0.128515,0.12899,0.129376,0.129674,0.129884,0.130005,0.13004,0.129989,0.129856,0.129641,0.129349,0.128983,0.128547,0.128044,0.127481,0.126861,0.12619,0.125474,0.124718,0.12393,0.123115,0.122279,0.121431,0.120576,0.119722,0.118875,0.118044,0.117233,0.116452,0.115705,0.115001,0.114344,0.113741,0.113197,0.112718,0.112309,0.111972,0.111712,0.111532,0.111433,0.111416,0.111482,0.111631,0.111859,0.112165,0.112544,0.112991,0.113499,0.114061,0.114665,0.115302,0.115959,0.11662,0.117269,0.117889,0.118459,0.118956,0.119357,0.119635,0.119762,0.119708,0.11944,0.118923,0.118121,0.116997,0.11551,0.11362,0.111286,0.108465,0.10512,0.101172,0.0966772,0.0919814
0.121318,0.122368,0.1226,0.122519,0.122059,0.121287,0.120249,0.118995,0.11757,0.116016,0.114374,0.112681,0.11097,0.109272,0.107615,0.106023,0.104517,0.103115,0.101833,0.100682,0.0996725,0.0988109,0.0981019,0.0975476,0.0971482,0.0969019,0.0968052,0.0968534,0.0970401,0.0973579,0.0977985,0.0983527,0.0990106,0.099762,0.100596,0.101502,0.10247,0.103487,0.104543,0.105629,0.106732,0.107844,0.108954,0.110054,0.111134,0.112188,0.113206,0.114183,0.115112,0.115987,0.116804,0.117556,0.118242,0.118857,0.119399,0.119865,0.120255,0.120567,0.120801,0.120957,0.121037,0.12104,0.12097,0.120828,0.120617,0.120341,0.120003,0.119607,0.119157,0.118659,0.118118,0.117539,0.116928,0.116292,0.115636,0.114968,0.114293,0.113619,0.112954,0.112303,0.111674,0.111074,0.11051,0.109988,0.109516,0.1091,0.108745,0.108458,0.108243,0.108106,0.10805,0.10808,0.108197,0.108405,0.108705,0.109097,0.109581,0.110155,0.110816,0.111562,0.112386,0.113283,0.114245,0.115263,0.116327,0.117423,0.118539,0.119658,0.120764,0.121837,0.122856,0.123799,0.124639,0.125352,0.125907,0.126274,0.12642,0.126312,0.125913,0.125186,0.124092,0.12259,0.120642,0.11821,0.115243,0.111677,0.107538,0.103383
0.135313,0.134878,0.134443,0.133591,0.132391,0.130898,0.129164,0.127234,0.125153,0.122962,0.120701,0.118406,0.116109,0.113841,0.111629,0.109496,0.107464,0.10555,0.103769,0.102133,0.100651,0.099331,0.0981761,0.0971887,0.096369,0.0957152,0.0952236,0.0948893,0.0947059,0.0946658,0.0947606,0.0949809,0.0953168,0.0957577,0.0962929,0.0969113,0.0976018,0.0983533,0.0991547,0.0999953,0.100865,0.101752,0.102649,0.103545,0.104432,0.105301,0.106145,0.106958,0.107732,0.108462,0.109142,0.109769,0.110338,0.110846,0.111291,0.111671,0.111984,0.112229,0.112406,0.112517,0.11256,0.112539,0.112455,0.11231,0.112108,0.111852,0.111545,0.111193,0.110799,0.110369,0.109909,0.109423,0.108919,0.108402,0.107879,0.107356,0.106841,0.106341,0.105862,0.105412,0.104998,0.104626,0.104305,0.10404,0.103838,0.103705,0.103647,0.10367,0.103778,0.103976,0.104269,0.104658,0.105146,0.105736,0.106428,0.107221,0.108116,0.109108,0.110196,0.111375,0.112638,0.113979,0.115389,0.116859,0.118375,0.119927,0.121497,0.123072,0.124631,0.126155,0.127622,0.129009,0.13029,0.131438,0.132423,0.133214,0.13378,0.134085,0.134093,0.133769,0.133072,0.131965,0.130409,0.128366,0.125801,0.122592,0.118826,0.115127
0.148733,0.147983,0.146729,0.145079,0.143109,0.140872,0.138416,0.135786,0.133026,0.130178,0.127278,0.124363,0.121464,0.118612,0.115832,0.113149,0.110581,0.108148,0.105863,0.103738,0.101782,0.100002,0.0984016,0.0969831,0.0957461,0.0946888,0.0938073,0.0930964,0.0925496,0.0921591,0.0919161,0.0918112,0.091834,0.091974,0.09222,0.0925608,0.0929851,0.0934813,0.0940384,0.0946454,0.0952914,0.0959662,0.0966599,0.0973631,0.0980668,0.0987628,0.0994434,0.100102,0.100731,0.101325,0.10188,0.10239,0.102852,0.103262,0.103619,0.103919,0.104163,0.104349,0.104477,0.104548,0.104562,0.104522,0.10443,0.104287,0.104098,0.103866,0.103595,0.103289,0.102954,0.102595,0.102217,0.101826,0.101429,0.101032,0.100642,0.100265,0.099909,0.0995808,0.0992876,0.0990366,0.098835,0.0986897,0.0986077,0.0985956,0.09866,0.0988068,0.0990418,0.0993703,0.099797,0.100326,0.100961,0.101704,0.102559,0.103525,0.104603,0.105793,0.107092,0.108498,0.110007,0.111613,0.11331,0.11509,0.116944,0.11886,0.120826,0.122828,0.124851,0.126877,0.128887,0.13086,0.132775,0.134605,0.136327,0.13791,0.139327,0.140544,0.141531,0.142252,0.142671,0.142753,0.142458,0.141748,0.140585,0.138938,0.13676,0.133935,0.13049,0.127287