-0,-0,-0,-0,-0,-0,-0,-0,-0,-0,-0,-0,-0,-0,-0,-0,-0,-0,-0,-0,-0,-0,-0,-0,-0,-0,-0,-0,-0,-0,-0,-0,-0,-0,-0,-0,-0,-0,-0,-0,-0,-0,-0,-0,-0,-0,-0,-0,-0,-0,-0,-0,-0,-0,-0,-0,-0,-0,-0,-0,-0,-0,-0,-0,-0,-0,-0,-0,-0,-0,-0,-0,-0,-0,-0,-0,-0,-0,-0,-0,-0,-0,-0,-0,-0,-0,-0,-0,-0,-0,-0,-0,-0,-0,-0,-0,-0,-0,-0,-0,-0,-0,-0,-0,-0,-0,-0,-0,-0,-0,-0,-0,-0,-0,-0,-0,-0,-0,-0,-0,-0,-0,-0,-0,-0,-0,-0,-0
-0,2.658e-08,9.76405e-08,1.82855e-07,2.58753e-07,3.10429e-07,3.29123e-07,3.10053e-07,2.50975e-07,1.51279e-07,1.14209e-08,-1.67439e-07,-3.83679e-07,-6.35382e-07,-9.20449e-07,-1.23668e-06,-1.58183e-06,-1.95365e-06,-2.34993e-06,-2.76851e-06,-3.20728e-06,-3.66422e-06,-4.13738e-06,-4.6249e-06,-5.125e-06,-5.63599e-06,-6.15625e-06,-6.68424e-06,-7.21848e-06,-7.75759e-06,-8.3002e-06,-8.84504e-06,-9.39085e-06,-9.93644e-06,-1.04806e-05,-1.10223e-05,-1.15604e-05,-1.20937e-05,-1.26213e-05,-1.31419e-05,-1.36547e-05,-1.41585e-05,-1.46523e-05,-1.51349e-05,-1.56055e-05,-1.60629e-05,-1.6506e-05,-1.69338e-05,-1.73452e-05,-1.77391e-05,-1.81146e-05,-1.84704e-05,-1.88055e-05,-1.9119e-05,-1.94096e-05,-1.96766e-05,-1.99187e-05,-2.01351e-05,-2.03249e-05,-2.04871e-05,-2.06209e-05,-2.07255e-05,-2.08001e-05,-2.08441e-05,-2.0857e-05,-2.08381e-05,-2.0787e-05,-2.07035e-05,-2.05872e-05,-2.04381e-05,-2.02561e-05,-2.00414e-05,-1.9794e-05,-1.95144e-05,-1.92031e-05,-1.88605e-05,-1.84876e-05,-1.80851e-05,-1.7654e-05,-1.71956e-05,-1.6711e-05,-1.62017e-05,-1.56692e-05,-1.51152e-05,-1.45415e-05,-1.395e-05,-1.33427e-05,-1.27218e-05,-1.20893e-05,-1.14477e-05,-1.07993e-05,-1.01466e-05,-9.4919e-06,-8.83788e-06,-8.18705e-06,-7.54196e-06,-6.90518e-06,-6.27926e-06,-5.66673e-06,-5.07005e-06,-4.49167e-06,-3.93394e-06,-3.39913e-06,-2.88943e-06,-2.4069e-06,-1.95349e-06,-1.531e-06,-1.14109e-06,-7.85238e-07,-4.64746e-07,-1.80711e-07,6.59961e-08,2.74748e-07,4.45194e-07,5.77297e-07,6.71372e-07,7.28154e-07,7.4887e-07,7.35348e-07,6.90166e-07,6.16861e-07,5.20224e-07,4.06735e-07,2.85177e-07,1.67426e-07,6.91736e-08,9.05512e-09,-0
-0,9.77163e-08,3.05995e-07,5.39353e-07,7.31585e-07,8.36897e-07,8.25752e-07,6.80408e-07,3.9141e-07,-4.49293e-08,-6.28291e-07,-1.35557e-06,-2.22176e-06,-3.22054e-06,-4.34474e-06,-5.58665e-06,-6.93828e-06,-8.39152e-06,-9.93827e-06,-1.15705e-05,-1.32805e-05,-1.50606e-05,-1.69034e-05,-1.88019e-05,-2.07494e-05,-2.27393e-05,-2.47653e-05,-2.68216e-05,-2.89024e-05,-3.10022e-05,-3.31158e-05,-3.52382e-05,-3.73643e-05,-3.94896e-05,-4.16094e-05,-4.37192e-05,-4.58147e-05,-4.78915e-05,-4.99454e-05,-5.19722e-05,-5.39677e-05,-5.59277e-05,-5.78482e-05,-5.97249e-05,-6.15538e-05,-6.33307e-05,-6.50514e-05,-6.67118e-05,-6.83078e-05,-6.98351e-05,-7.12897e-05,-7.26674e-05,-7.39641e-05,-7.51758e-05,-7.62986e-05,-7.73284e-05,-7.82616e-05,-7.90944e-05,-7.98233e-05,-8.04449e-05,-8.09561e-05,-8.13537e-05,-8.16351e-05,-8.17978e-05,-8.18396e-05,-8.17585e-05,-8.15531e-05,-8.1222e-05,-8.07645e-05,-8.01801e-05,-7.94689e-05,-7.86313e-05,-7.76681e-05,-7.65808e-05,-7.53713e-05,-7.40419e-05,-7.25955e-05,-7.10355e-05,-6.93659e-05,-6.7591e-05,-6.57158e-05,-6.37457e-05,-6.16868e-05,-5.95453e-05,-5.73282e-05,-5.50427e-05,-5.26966e-05,-5.02981e-05,-4.78554e-05,-4.53775e-05,-4.28732e-05,-4.0352e-05,-3.78233e-05,-3.52966e-05,-3.27817e-05,-3.02883e-05,-2.78262e-05,-2.5405e-05,-2.30344e-05,-2.07238e-05,-1.84824e-05,-1.63191e-05,-1.42426e-05,-1.22612e-05,-1.03825e-05,-8.61406e-06,-6.96256e-06,-5.43422e-06,-4.03456e-06,-2.76839e-06,-1.63971e-06,-6.51648e-07,1.93648e-07,8.95122e-07,1.45294e-06,1.86866e-06,2.14548e-06,2.28846e-06,2.30495e-06,2.20507e-06,2.00234e-06,1.71455e-06,1.36492e-06,9.83423e-07,6.08207e-07,2.86041e-07,6.90383e-08,-0
-0,1.83301e-07,5.4019e-07,9.13993e-07,1.18607e-06,1.27184e-06,1.11423e-06,6.77184e-07,-5.97675e-08,-1.10572e-06,-2.46153e-06,-4.12209e-06,-6.0781e-06,-8.31726e-06,-1.08252e-05,-1.35864e-05,-1.65842e-05,-1.98019e-05,-2.32223e-05,-2.68288e-05,-3.06045e-05,-3.45333e-05,-3.85994e-05,-4.27876e-05,-4.70831e-05,-5.14719e-05,-5.59403e-05,-6.04752e-05,-6.50643e-05,-6.96953e-05,-7.43567e-05,-7.90373e-05,-8.37262e-05,-8.8413e-05,-9.30875e-05,-9.77397e-05,-0.00010236,-0.000106938,-0.000111465,-0.000115932,-0.000120329,-0.000124647,-0.000128877,-0.00013301,-0.000137036,-0.000140946,-0.000144731,-0.000148383,-0.000151891,-0.000155247,-0.000158442,-0.000161466,-0.000164312,-0.000166968,-0.000169429,-0.000171684,-0.000173725,-0.000175545,-0.000177136,-0.00017849,-0.000179601,-0.000180463,-0.000181068,-0.000181413,-0.000181492,-0.000181302,-0.000180839,-0.0001801,-0.000179084,-0.00017779,-0.000176219,-0.000174371,-0.000172248,-0.000169854,-0.000167193,-0.00016427,-0.000161092,-0.000157665,-0.000153999,-0.000150104,-0.00014599,-0.000141668,-0.000137153,-0.000132458,-0.000127598,-0.000122589,-0.000117447,-0.000112191,-0.000106839,-0.000101409,-9.59215e-05,-9.03964e-05,-8.48542e-05,-7.93157e-05,-7.38021e-05,-6.83343e-05,-6.29335e-05,-5.76207e-05,-5.24166e-05,-4.73416e-05,-4.24157e-05,-3.76582e-05,-3.30877e-05,-2.8722e-05,-2.45779e-05,-2.06713e-05,-1.70167e-05,-1.36274e-05,-1.05151e-05,-7.69017e-06,-5.1609e-06,-2.9338e-06,-1.01318e-06,5.9903e-07,1.90361e-06,2.9044e-06,3.60872e-06,4.02798e-06,4.17837e-06,4.08179e-06,3.76699e-06,3.27107e-06,2.64119e-06,1.93654e-06,1.22992e-06,6.07942e-07,1.66999e-07,-0
-0,2.60023e-07,7.34344e-07,1.18853e-06,1.44702e-06,1.38287e-06,9.08284e-07,-3.39855e-08,-1.47774e-06,-3.43907e-06,-5.92086e-06,-8.91614e-06,-1.24108e-05,-1.63855e-05,-2.08173e-05,-2.56807e-05,-3.09486e-05,-3.65932e-05,-4.25859e-05,-4.88985e-05,-5.55029e-05,-6.23716e-05,-6.94778e-05,-7.67953e-05,-8.4299e-05,-9.19645e-05,-9.97683e-05,-0.000107688,-0.000115701,-0.000123788,-0.000131927,-0.0001401,-0.000148286,-0.000156469,-0.000164629,-0.00017275,-0.000180814,-0.000188805,-0.000196705,-0.000204498,-0.000212169,-0.0002197,-0.000227076,-0.000234281,-0.000241298,-0.000248112,-0.000254706,-0.000261065,-0.000267172,-0.000273013,-0.00027857,-0.000283828,-0.000288773,-0.000293388,-0.000297659,-0.000301571,-0.00030511,-0.000308262,-0.000311014,-0.000313354,-0.00031527,-0.00031675,-0.000317786,-0.000318367,-0.000318486,-0.000318137,-0.000317313,-0.000316011,-0.000314228,-0.000311963,-0.000309216,-0.00030599,-0.000302287,-0.000298115,-0.00029348,-0.000288392,-0.000282861,-0.000276902,-0.000270528,-0.000263757,-0.000256607,-0.0002491,-0.000241257,-0.000233103,-0.000224664,-0.000215967,-0.00020704,-0.000197915,-0.000188623,-0.000179197,-0.00016967,-0.000160077,-0.000150453,-0.000140834,-0.000131256,-0.000121756,-0.00011237,-0.000103133,-9.40812e-05,-8.52499e-05,-7.6673e-05,-6.83838e-05,-6.0414e-05,-5.27942e-05,-4.55531e-05,-3.87178e-05,-3.2313e-05,-2.63615e-05,-2.08831e-05,-1.58951e-05,-1.14117e-05,-7.44355e-06,-3.99764e-06,-1.07682e-06,1.32073e-06,3.20208e-06,4.58024e-06,5.47505e-06,5.91429e-06,5.93502e-06,5.58521e-06,4.92575e-06,4.03265e-06,2.9994e-06,1.93892e-06,9.83976e-07,2.84596e-07,-0
-0,3.12964e-07,8.42377e-07,1.27747e-06,1.38556e-06,9.96854e-07,-8.01427e-09,-1.7084e-06,-4.15236e-06,-7.36372e-06,-1.13477e-05,-1.60956e-05,-2.15879e-05,-2.77976e-05,-3.46918e-05,-4.22339e-05,-5.03845e-05,-5.91026e-05,-6.83465e-05,-7.80741e-05,-8.82438e-05,-9.88145e-05,-0.000109746,-0.000120999,-0.000132535,-0.000144318,-0.000156312,-0.000168482,-0.000180796,-0.000193221,-0.000205726,-0.000218281,-0.000230858,-0.000243427,-0.000255961,-0.000268433,-0.000280817,-0.000293087,-0.000305216,-0.00031718,-0.000328953,-0.000340511,-0.000351827,-0.000362879,-0.000373641,-0.000384088,-0.000394196,-0.00040394,-0.000413296,-0.00042224,-0.000430747,-0.000438795,-0.000446358,-0.000453414,-0.00045994,-0.000465915,-0.000471316,-0.000476123,-0.000480315,-0.000483875,-0.000486785,-0.000489027,-0.000490588,-0.000491453,-0.000491611,-0.000491052,-0.000489768,-0.000487753,-0.000485002,-0.000481516,-0.000477294,-0.00047234,-0.00046666,-0.000460264,-0.000453161,-0.000445368,-0.000436901,-0.000427781,-0.000418029,-0.000407672,-0.000396739,-0.000385261,-0.000373272,-0.000360809,-0.000347911,-0.00033462,-0.00032098,-0.000307036,-0.000292837,-0.000278432,-0.000263872,-0.00024921,-0.0002345,-0.000219794,-0.000205148,-0.000190617,-0.000176256,-0.000162118,-0.000148258,-0.000134729,-0.000121583,-0.000108868,-9.66341e-05,-8.49265e-05,-7.37887e-05,-6.32614e-05,-5.33818e-05,-4.4184e-05,-3.56977e-05,-2.79489e-05,-2.09583e-05,-1.47418e-05,-9.30953e-06,-4.66523e-06,-8.05669e-07,2.28022e-06,4.61238e-06,6.22079e-06,7.14694e-06,7.44555e-06,7.18668e-06,6.4581e-06,5.36793e-06,4.04743e-06,2.6534e-06,1.36963e-06,4.06756e-07,-0
-0,3.33128e-07,8.33706e-07,1.12125e-06,9.09316e-07,-1.28902e-08,-1.79518e-06,-4.53847e-06,-8.30481e-06,-1.31256e-05,-1.90083e-05,-2.59419e-05,-3.39014e-05,-4.28509e-05,-5.27469e-05,-6.35403e-05,-7.51779e-05,-8.76042e-05,-0.000100762,-0.000114595,-0.000129045,-0.000144055,-0.00015957,-0.000175535,-0.000191897,-0.000208606,-0.00022561,-0.000242862,-0.000260316,-0.000277925,-0.000295646,-0.000313437,-0.000331256,-0.000349064,-0.00036682,-0.000384487,-0.000402027,-0.000419402,-0.000436577,-0.000453516,-0.000470182,-0.00048654,-0.000502554,-0.00051819,-0.000533413,-0.000548187,-0.000562478,-0.000576252,-0.000589473,-0.000602107,-0.000614122,-0.000625482,-0.000636155,-0.000646108,-0.00065531,-0.000663729,-0.000671335,-0.0006781,-0.000683995,-0.000688995,-0.000693075,-0.000696212,-0.000698386,-0.000699577,-0.00069977,-0.000698951,-0.000697109,-0.000694237,-0.000690328,-0.000685382,-0.000679401,-0.000672389,-0.000664355,-0.000655312,-0.000645277,-0.00063427,-0.000622315,-0.000609441,-0.00059568,-0.000581069,-0.000565647,-0.000549459,-0.000532552,-0.000514979,-0.000496795,-0.000478056,-0.000458826,-0.000439169,-0.000419151,-0.000398841,-0.000378312,-0.000357636,-0.000336888,-0.000316144,-0.000295479,-0.000274971,-0.000254696,-0.00023473,-0.000215147,-0.000196023,-0.000177428,-0.000159433,-0.000142104,-0.000125505,-0.000109697,-9.47371e-05,-8.06761e-05,-6.75614e-05,-5.54345e-05,-4.43308e-05,-3.42792e-05,-2.53013e-05,-1.74107e-05,-1.06122e-05,-4.90109e-06,-2.6153e-07,3.3342e-06,5.92745e-06,7.57495e-06,8.35088e-06,8.34931e-06,7.68697e-06,6.50625e-06,4.97849e-06,3.30698e-06,1.72987e-06,5.22478e-07,-0
-0,3.15269e-07,6.88752e-07,6.7972e-07,-4.62034e-08,-1.73697e-06,-4.57025e-06,-8.66672e-06,-1.41011e-05,-2.09115e-05,-2.91069e-05,-3.86733e-05,-4.95791e-05,-6.17792e-05,-7.52182e-05,-8.98333e-05,-0.000105557,-0.000122317,-0.00014004,-0.000158652,-0.000178078,-0.000198244,-0.000219078,-0.000240507,-0.000262462,-0.000284876,-0.000307681,-0.000330815,-0.000354215,-0.000377821,-0.000401575,-0.000425419,-0.000449299,-0.000473161,-0.000496952,-0.00052062,-0.000544116,-0.00056739,-0.000590391,-0.000613073,-0.000635387,-0.000657284,-0.000678719,-0.000699643,-0.00072001,-0.000739773,-0.000758885,-0.0007773,-0.000794973,-0.000811857,-0.000827907,-0.000843078,-0.000857327,-0.00087061,-0.000882885,-0.00089411,-0.000904247,-0.000913256,-0.000921102,-0.000927749,-0.000933166,-0.000937322,-0.000940191,-0.000941748,-0.000941971,-0.000940844,-0.000938352,-0.000934485,-0.000929238,-0.000922607,-0.000914596,-0.000905213,-0.000894469,-0.000882381,-0.000868973,-0.00085427,-0.000838307,-0.000821121,-0.000802754,-0.000783256,-0.000762679,-0.000741083,-0.000718532,-0.000695092,-0.000670838,-0.000645847,-0.000620199,-0.000593981,-0.000567281,-0.00054019,-0.000512803,-0.000485217,-0.000457531,-0.000429843,-0.000402256,-0.00037487,-0.000347785,-0.000321104,-0.000294924,-0.000269344,-0.000244457,-0.000220356,-0.00019713,-0.000174863,-0.000153634,-0.000133518,-0.000114583,-9.68912e-05,-8.04969e-05,-6.54465e-05,-5.17778e-05,-3.9519e-05,-2.86876e-05,-1.92898e-05,-1.13189e-05,-4.75441e-06,4.39964e-07,4.31773e-06,6.95186e-06,8.43711e-06,8.89284e-06,8.466e-06,7.33464e-06,5.71152e-06,3.84805e-06,2.03837e-06,6.2403e-07,-0
-0,2.5646e-07,3.95473e-07,-7.32386e-08,-1.52458e-06,-4.23841e-06,-8.41645e-06,-1.41963e-05,-2.16633e-05,-3.08606e-05,-4.17972e-05,-5.44552e-05,-6.87955e-05,-8.47624e-05,-0.000102288,-0.000121295,-0.000141698,-0.00016341,-0.000186339,-0.000210392,-0.000235475,-0.000261497,-0.000288364,-0.000315988,-0.000344279,-0.000373152,-0.000402523,-0.000432311,-0.000462436,-0.000492821,-0.000523393,-0.000554078,-0.000584805,-0.000615505,-0.000646111,-0.000676557,-0.000706777,-0.000736707,-0.000766284,-0.000795445,-0.00082413,-0.000852275,-0.000879821,-0.000906706,-0.000932871,-0.000958254,-0.000982797,-0.00100644,-0.00102912,-0.00105079,-0.00107138,-0.00109084,-0.00110911,-0.00112613,-0.00114186,-0.00115624,-0.00116921,-0.00118074,-0.00119077,-0.00119927,-0.00120618,-0.00121147,-0.00121511,-0.00121707,-0.00121732,-0.00121584,-0.00121261,-0.00120762,-0.00120087,-0.00119234,-0.00118204,-0.00116999,-0.0011562,-0.00114069,-0.00112349,-0.00110464,-0.00108418,-0.00106215,-0.00103861,-0.00101363,-0.00098727,-0.000959605,-0.000930719,-0.000900696,-0.000869632,-0.000837623,-0.000804773,-0.00077119,-0.000736988,-0.000702283,-0.000667194,-0.000631844,-0.000596359,-0.000560865,-0.000525491,-0.000490364,-0.000455613,-0.000421365,-0.000387747,-0.000354881,-0.000322887,-0.000291883,-0.000261981,-0.000233288,-0.000205904,-0.000179923,-0.000155433,-0.000132512,-0.000111227,-9.16387e-05,-7.37937e-05,-5.77277e-05,-4.34628e-05,-3.10068e-05,-2.03514e-05,-1.14711e-05,-4.32077e-06,1.16559e-06,5.07775e-06,7.53175e-06,8.67282e-06,8.67889e-06,7.76426e-06,6.1838e-06,4.23754e-06,2.27593e-06,7.06083e-07,-0
-0,1.55223e-07,-5.30804e-08,-1.15375e-06,-3.55398e-06,-7.55937e-06,-1.33909e-05,-2.11996e-05,-3.10784e-05,-4.30733e-05,-5.71916e-05,-7.34099e-05,-9.16803e-05,-0.000111936,-0.000134093,-0.000158061,-0.000183736,-0.000211013,-0.00023978,-0.000269925,-0.000301334,-0.000333894,-0.000367494,-0.000402023,-0.000437373,-0.000473438,-0.000510115,-0.000547304,-0.000584907,-0.000622829,-0.000660978,-0.000699262,-0.000737595,-0.00077589,-0.000814062,-0.00085203,-0.000889712,-0.000927029,-0.000963901,-0.00100025,-0.001036,-0.00107107,-0.00110539,-0.00113889,-0.00117147,-0.00120308,-0.00123364,-0.00126307,-0.00129131,-0.00131827,-0.00134388,-0.00136808,-0.0013908,-0.00141196,-0.0014315,-0.00144936,-0.00146548,-0.00147978,-0.00149223,-0.00150275,-0.00151131,-0.00151786,-0.00152235,-0.00152475,-0.00152503,-0.00152316,-0.00151911,-0.00151287,-0.00150444,-0.00149382,-0.001481,-0.001466,-0.00144885,-0.00142956,-0.00140818,-0.00138475,-0.00135932,-0.00133195,-0.00130271,-0.00127167,-0.00123893,-0.00120457,-0.0011687,-0.00113141,-0.00109283,-0.00105308,-0.00101228,-0.000970564,-0.000928078,-0.000884962,-0.000841364,-0.000797434,-0.000753327,-0.000709199,-0.000665208,-0.000621511,-0.000578267,-0.000535632,-0.000493761,-0.000452806,-0.000412915,-0.000374231,-0.000336893,-0.000301033,-0.000266773,-0.000234231,-0.000203512,-0.000174712,-0.000147917,-0.000123197,-0.000100612,-8.02059e-05,-6.20049e-05,-4.60192e-05,-3.22393e-05,-2.06348e-05,-1.11519e-05,-3.7119e-06,1.79198e-06,5.49718e-06,7.57507e-06,8.23467e-06,7.72662e-06,6.34783e-06,4.44663e-06,2.42882e-06,7.65018e-07,-0
-0,1.09824e-08,-6.60429e-07,-2.57089e-06,-6.15134e-06,-1.17263e-05,-1.95309e-05,-2.97248e-05,-4.24057e-05,-5.76194e-05,-7.53693e-05,-9.56246e-05,-0.000118327,-0.000143396,-0.000170734,-0.000200231,-0.000231768,-0.000265217,-0.000300448,-0.000337327,-0.000375719,-0.000415489,-0.000456505,-0.000498634,-0.000541747,-0.000585718,-0.000630422,-0.000675738,-0.00072155,-0.000767741,-0.000814201,-0.00086082,-0.000907491,-0.00095411,-0.00100057,-0.00104678,-0.00109264,-0.00113805,-0.00118291,-0.00122713,-0.00127061,-0.00131327,-0.001355,-0.00139572,-0.00143534,-0.00147376,-0.0015109,-0.00154666,-0.00158095,-0.0016137,-0.0016448,-0.00167418,-0.00170176,-0.00172744,-0.00175115,-0.00177281,-0.00179234,-0.00180969,-0.00182476,-0.00183751,-0.00184787,-0.00185578,-0.0018612,-0.00186408,-0.00186438,-0.00186208,-0.00185714,-0.00184955,-0.0018393,-0.00182639,-0.00181082,-0.00179262,-0.0017718,-0.0017484,-0.00172246,-0.00169405,-0.00166321,-0.00163002,-0.00159457,-0.00155695,-0.00151726,-0.00147561,-0.00143212,-0.00138692,-0.00134015,-0.00129196,-0.0012425,-0.00119192,-0.0011404,-0.00108811,-0.00103523,-0.000981936,-0.000928415,-0.000874855,-0.000821446,-0.000768378,-0.00071584,-0.000664022,-0.000613107,-0.000563281,-0.00051472,-0.000467597,-0.000422078,-0.000378322,-0.000336476,-0.000296681,-0.000259064,-0.000223741,-0.000190814,-0.000160368,-0.000132475,-0.000107187,-8.45371e-05,-6.45384e-05,-4.71803e-05,-3.24277e-05,-2.02186e-05,-1.04617e-05,-3.03341e-06,2.22488e-06,5.51052e-06,7.06331e-06,7.16984e-06,6.16838e-06,4.45446e-06,2.48746e-06,7.98444e-07,-0
-0,-1.76261e-07,-1.42779e-06,-4.32882e-06,-9.32548e-06,-1.67543e-05,-2.68584e-05,-3.9802e-05,-5.56831e-05,-7.45443e-05,-9.63826e-05,-0.000121157,-0.000148798,-0.00017921,-0.000212278,-0.000247874,-0.000285859,-0.000326084,-0.000368399,-0.000412645,-0.000458668,-0.000506308,-0.000555411,-0.000605821,-0.000657387,-0.000709959,-0.000763392,-0.000817543,-0.000872273,-0.000927447,-0.000982931,-0.0010386,-0.00109432,-0.00114997,-0.00120543,-0.00126057,-0.0013153,-0.00136947,-0.00142299,-0.00147574,-0.0015276,-0.00157847,-0.00162824,-0.00167679,-0.00172402,-0.00176981,-0.00181407,-0.00185668,-0.00189754,-0.00193655,-0.00197359,-0.00200858,-0.0020414,-0.00207197,-0.00210019,-0.00212596,-0.0021492,-0.00216982,-0.00218775,-0.0022029,-0.0022152,-0.00222459,-0.00223102,-0.00223442,-0.00223476,-0.002232,-0.0022261,-0.00221706,-0.00220485,-0.00218948,-0.00217096,-0.0021493,-0.00212453,-0.0020967,-0.00206586,-0.00203207,-0.00199541,-0.00195596,-0.00191382,-0.00186909,-0.00182191,-0.0017724,-0.00172071,-0.00166698,-0.00161138,-0.00155408,-0.00149527,-0.00143513,-0.00137386,-0.00131166,-0.00124875,-0.00118533,-0.00112163,-0.00105786,-0.000994261,-0.000931042,-0.000868432,-0.000806653,-0.000745924,-0.00068646,-0.000628472,-0.000572163,-0.000517729,-0.000465356,-0.000415221,-0.000367488,-0.000322307,-0.000279815,-0.000240132,-0.000203361,-0.000169585,-0.000138866,-0.000111246,-8.67396e-05,-6.53366e-05,-4.6998e-05,-3.16539e-05,-1.9201e-05,-9.49951e-06,-2.36986e-06,2.4106e-06,5.11181e-06,6.05542e-06,5.6199e-06,4.24638e-06,2.44536e-06,8.04842e-07,-0
-0,-4.0615e-07,-2.35485e-06,-6.42825e-06,-1.30794e-05,-2.26495e-05,-3.53841e-05,-5.14466e-05,-7.09313e-05,-9.38741e-05,-0.000120262,-0.000150044,-0.000183132,-0.000219417,-0.000258765,-0.000301029,-0.000346046,-0.000393649,-0.000443661,-0.000495904,-0.000550196,-0.000606357,-0.000664206,-0.000723565,-0.000784258,-0.000846113,-0.000908962,-0.000972637,-0.00103698,-0.00110183,-0.00116703,-0.00123243,-0.00129789,-0.00136326,-0.0014284,-0.00149316,-0.00155741,-0.00162102,-0.00168385,-0.00174576,-0.00180664,-0.00186633,-0.00192473,-0.00198169,-0.00203709,-0.00209081,-0.00214271,-0.00219268,-0.00224059,-0.00228632,-0.00232974,-0.00237075,-0.00240922,-0.00244503,-0.00247809,-0.00250828,-0.00253549,-0.00255964,-0.00258062,-0.00259836,-0.00261275,-0.00262374,-0.00263126,-0.00263523,-0.00263562,-0.00263238,-0.00262547,-0.00261488,-0.00260059,-0.0025826,-0.00256092,-0.00253558,-0.00250661,-0.00247405,-0.00243798,-0.00239845,-0.00235557,-0.00230942,-0.00226013,-0.00220782,-0.00215263,-0.00209472,-0.00203425,-0.0019714,-0.00190635,-0.00183931,-0.00177049,-0.0017001,-0.00162839,-0.00155557,-0.0014819,-0.00140763,-0.001333,-0.00125828,-0.00118373,-0.0011096,-0.00103616,-0.000963655,-0.000892352,-0.000822498,-0.000754336,-0.000688103,-0.000624027,-0.000562324,-0.000503199,-0.000446843,-0.000393432,-0.000343124,-0.000296059,-0.000252358,-0.000212117,-0.000175411,-0.000142288,-0.000112768,-8.68417e-05,-6.44663e-05,-4.55651e-05,-3.00233e-05,-1.76856e-05,-8.35248e-06,-1.77674e-06,2.34069e-06,4.35535e-06,4.68437e-06,3.81238e-06,2.29832e-06,7.83317e-07,-0
-0,-6.78099e-07,-3.44027e-06,-8.86755e-06,-1.74118e-05,-2.94122e-05,-4.51102e-05,-6.46635e-05,-8.81582e-05,-0.00011562,-0.000147022,-0.000182299,-0.000221348,-0.000264038,-0.000310216,-0.000359714,-0.000412348,-0.000467924,-0.000526244,-0.000587104,-0.000650298,-0.00071562,-0.000782865,-0.00085183,-0.000922314,-0.00099412,-0.00106706,-0.00114093,-0.00121556,-0.00129076,-0.00136636,-0.00144218,-0.00151805,-0.00159381,-0.00166928,-0.00174432,-0.00181875,-0.00189243,-0.0019652,-0.0020369,-0.00210739,-0.00217651,-0.00224412,-0.00231006,-0.00237418,-0.00243635,-0.00249642,-0.00255424,-0.00260967,-0.00266257,-0.0027128,-0.00276023,-0.00280472,-0.00284614,-0.00288436,-0.00291926,-0.00295073,-0.00297864,-0.0030029,-0.00302339,-0.00304004,-0.00305274,-0.00306143,-0.00306603,-0.00306649,-0.00306276,-0.0030548,-0.00304258,-0.0030261,-0.00300534,-0.00298033,-0.00295109,-0.00291767,-0.00288011,-0.00283848,-0.00279288,-0.0027434,-0.00269015,-0.00263328,-0.00257292,-0.00250923,-0.0024424,-0.0023726,-0.00230005,-0.00222497,-0.00214757,-0.0020681,-0.00198682,-0.00190398,-0.00181985,-0.00173473,-0.00164888,-0.0015626,-0.00147619,-0.00138995,-0.00130416,-0.00121914,-0.00113516,-0.00105254,-0.000971551,-0.000892477,-0.000815588,-0.000741147,-0.000669402,-0.000600588,-0.000534925,-0.000472614,-0.000413839,-0.000358761,-0.000307518,-0.000260224,-0.000216964,-0.000177796,-0.000142747,-0.000111806,-8.49313e-05,-6.20385e-05,-4.30026e-05,-2.76537e-05,-1.57732e-05,-7.09063e-06,-1.27894e-06,2.04976e-06,3.34944e-06,3.146e-06,2.04383e-06,7.33413e-07,-0
-0,-9.91395e-07,-4.68205e-06,-1.16435e-05,-2.23187e-05,-3.70378e-05,-5.60326e-05,-7.94494e-05,-0.000107362,-0.00013978,-0.000176663,-0.000217926,-0.000263446,-0.000313074,-0.000366633,-0.00042393,-0.00048476,-0.000548903,-0.000616136,-0.000686229,-0.000758949,-0.000834066,-0.000911348,-0.000990566,-0.00107149,-0.00115391,-0.00123759,-0.00132233,-0.00140791,-0.00149413,-0.00158078,-0.00166767,-0.00175461,-0.00184141,-0.00192787,-0.00201382,-0.00209907,-0.00218345,-0.00226678,-0.00234887,-0.00242957,-0.0025087,-0.00258608,-0.00266155,-0.00273494,-0.00280608,-0.00287481,-0.00294097,-0.00300438,-0.0030649,-0.00312236,-0.0031766,-0.00322749,-0.00327485,-0.00331857,-0.00335848,-0.00339446,-0.00342639,-0.00345413,-0.00347757,-0.00349662,-0.00351116,-0.00352112,-0.00352641,-0.00352697,-0.00352275,-0.0035137,-0.00349979,-0.00348102,-0.00345737,-0.00342886,-0.00339553,-0.00335742,-0.00331459,-0.00326713,-0.00321512,-0.00315869,-0.00309797,-0.00303309,-0.00296424,-0.00289158,-0.00281533,-0.00273569,-0.00265289,-0.00256718,-0.00247883,-0.0023881,-0.00229528,-0.00220066,-0.00210456,-0.00200729,-0.00190917,-0.00181053,-0.00171171,-0.00161304,-0.00151487,-0.00141752,-0.00132134,-0.00122665,-0.00113379,-0.00104306,-0.00095479,-0.000869262,-0.000786762,-0.000707558,-0.0006319,-0.000560018,-0.000492119,-0.000428389,-0.000368985,-0.000314039,-0.00026365,-0.000217886,-0.000176779,-0.000140324,-0.000108475,-8.11446e-05,-5.81983e-05,-3.94524e-05,-2.46706e-05,-1.35603e-05,-5.76797e-06,-8.75153e-07,1.60703e-06,2.2433e-06,1.68055e-06,6.54982e-07,-0
-0,-1.34525e-06,-6.07776e-06,-1.47517e-05,-2.77939e-05,-4.55189e-05,-6.81426e-05,-9.57949e-05,-0.000128532,-0.000166345,-0.000209175,-0.000256913,-0.000309418,-0.000366513,-0.000428,-0.000493662,-0.000563265,-0.000636565,-0.000713311,-0.000793246,-0.000876113,-0.000961651,-0.0010496,-0.00113971,-0.00123172,-0.00132539,-0.00142047,-0.00151672,-0.0016139,-0.00171178,-0.00181014,-0.00190876,-0.00200741,-0.00210589,-0.00220397,-0.00230146,-0.00239815,-0.00249383,-0.00258832,-0.0026814,-0.00277289,-0.00286259,-0.00295031,-0.00303585,-0.00311903,-0.00319965,-0.00327754,-0.0033525,-0.00342436,-0.00349293,-0.00355803,-0.00361949,-0.00367713,-0.0037308,-0.00378032,-0.00382555,-0.00386632,-0.0039025,-0.00393394,-0.00396053,-0.00398213,-0.00399865,-0.00400998,-0.00401603,-0.00401674,-0.00401203,-0.00400187,-0.00398622,-0.00396507,-0.00393841,-0.00390626,-0.00386866,-0.00382566,-0.00377732,-0.00372374,-0.00366503,-0.00360132,-0.00353274,-0.00345947,-0.0033817,-0.00329962,-0.00321346,-0.00312347,-0.0030299,-0.00293302,-0.00283313,-0.00273054,-0.00262556,-0.00251853,-0.00240979,-0.0022997,-0.00218862,-0.00207692,-0.00196498,-0.00185317,-0.00174187,-0.00163147,-0.00152234,-0.00141485,-0.00130938,-0.00120628,-0.00110589,-0.00100855,-0.000914578,-0.000824279,-0.000737933,-0.000655799,-0.000578113,-0.000505084,-0.000436892,-0.000373686,-0.000315582,-0.000262658,-0.000214956,-0.000172473,-0.000135166,-0.000102942,-7.56587e-05,-5.31203e-05,-3.50744e-05,-2.12074e-05,-1.11414e-05,-4.42872e-06,-5.47929e-07,1.10213e-06,1.20798e-06,5.48075e-07,-0
-0,-1.73883e-06,-7.62476e-06,-1.81872e-05,-3.38299e-05,-5.48455e-05,-8.14282e-05,-0.000113686,-0.000151653,-0.000195299,-0.000244539,-0.000299242,-0.00035924,-0.000424333,-0.000494295,-0.000568881,-0.000647832,-0.000730874,-0.000817729,-0.000908113,-0.00100174,-0.00109832,-0.00119756,-0.00129919,-0.00140292,-0.00150848,-0.00161559,-0.00172399,-0.00183341,-0.0019436,-0.00205431,-0.00216528,-0.00227627,-0.00238705,-0.00249738,-0.00260702,-0.00271576,-0.00282335,-0.00292959,-0.00303424,-0.00313709,-0.00323792,-0.00333652,-0.00343266,-0.00352615,-0.00361676,-0.00370429,-0.00378853,-0.00386927,-0.00394632,-0.00401948,-0.00408854,-0.00415332,-0.00421363,-0.00426929,-0.00432012,-0.00436596,-0.00440664,-0.00444201,-0.00447193,-0.00449626,-0.00451489,-0.00452771,-0.0045346,-0.00453551,-0.00453035,-0.00451907,-0.00450164,-0.00447804,-0.00444827,-0.00441235,-0.00437032,-0.00432223,-0.00426816,-0.00420821,-0.00414251,-0.00407119,-0.00399442,-0.00391238,-0.00382528,-0.00373335,-0.00363683,-0.003536,-0.00343114,-0.00332255,-0.00321057,-0.00309552,-0.00297778,-0.00285771,-0.00273569,-0.00261211,-0.0024874,-0.00236194,-0.00223617,-0.0021105,-0.00198537,-0.00186118,-0.00173837,-0.00161735,-0.00149852,-0.0013823,-0.00126906,-0.00115919,-0.00105303,-0.000950922,-0.000853187,-0.000760114,-0.000671967,-0.000588983,-0.000511364,-0.000439281,-0.000372864,-0.000312207,-0.00025736,-0.000208328,-0.000165066,-0.000127481,-9.54245e-05,-6.86893e-05,-4.70081e-05,-3.00488e-05,-1.741e-05,-8.61724e-06,-3.11843e-06,-2.78434e-07,6.26128e-07,4.12872e-07,-0
-0,-2.1713e-06,-9.32023e-06,-2.19445e-05,-4.04184e-05,-6.50062e-05,-9.58749e-05,-0.000133106,-0.000176706,-0.000226618,-0.00028273,-0.000344884,-0.000412884,-0.000486501,-0.000565481,-0.00064955,-0.000738418,-0.000831785,-0.000929341,-0.00103077,-0.00113576,-0.00124399,-0.00135515,-0.00146893,-0.001585,-0.00170308,-0.00182285,-0.00194403,-0.00206632,-0.00218945,-0.00231312,-0.00243707,-0.00256103,-0.00268472,-0.00280791,-0.00293031,-0.00305169,-0.00317178,-0.00329035,-0.00340714,-0.00352191,-0.00363442,-0.00374444,-0.00385171,-0.00395601,-0.00405711,-0.00415476,-0.00424874,-0.00433883,-0.00442479,-0.0045064,-0.00458346,-0.00465574,-0.00472304,-0.00478516,-0.00484191,-0.00489309,-0.00493853,-0.00497806,-0.00501152,-0.00503876,-0.00505965,-0.00507407,-0.00508191,-0.00508308,-0.0050775,-0.00506511,-0.00504588,-0.00501978,-0.00498682,-0.00494702,-0.0049004,-0.00484705,-0.00478705,-0.00472049,-0.00464753,-0.00456831,-0.00448302,-0.00439185,-0.00429504,-0.00419284,-0.00408551,-0.00397337,-0.00385671,-0.00373589,-0.00361126,-0.0034832,-0.00335209,-0.00321836,-0.00308242,-0.00294472,-0.00280569,-0.00266579,-0.0025255,-0.00238526,-0.00224556,-0.00210687,-0.00196964,-0.00183434,-0.00170143,-0.00157135,-0.00144452,-0.00132137,-0.0012023,-0.00108766,-0.000977831,-0.000873121,-0.00077383,-0.000680223,-0.000592528,-0.000510936,-0.000435598,-0.000366622,-0.00030407,-0.000247952,-0.000198229,-0.000154807,-0.000117531,-8.61863e-05,-6.04916e-05,-4.00977e-05,-2.4582e-05,-1.34451e-05,-6.10618e-06,-1.89862e-06,-6.46693e-08,2.49617e-07,-0
-0,-2.64184e-06,-1.11613e-05,-2.6018e-05,-4.75503e-05,-7.59885e-05,-0.000111467,-0.000154034,-0.000203666,-0.000260276,-0.000323719,-0.000393808,-0.000470313,-0.000552978,-0.000641515,-0.000735621,-0.000834974,-0.000939242,-0.00104808,-0.00116116,-0.00127812,-0.00139861,-0.00152229,-0.00164882,-0.00177786,-0.00190907,-0.00204213,-0.00217671,-0.00231249,-0.00244917,-0.00258643,-0.00272397,-0.0028615,-0.00299873,-0.00313536,-0.00327112,-0.00340573,-0.0035389,-0.00367037,-0.00379987,-0.00392712,-0.00405186,-0.00417382,-0.00429274,-0.00440837,-0.00452044,-0.00462869,-0.00473288,-0.00483274,-0.00492804,-0.00501853,-0.00510397,-0.00518413,-0.00525878,-0.00532769,-0.00539066,-0.00544747,-0.00549793,-0.00554185,-0.00557906,-0.0056094,-0.00563272,-0.00564888,-0.00565777,-0.00565928,-0.00565333,-0.00563986,-0.00561882,-0.0055902,-0.00555398,-0.00551019,-0.00545887,-0.0054001,-0.00533397,-0.00526059,-0.00518012,-0.00509272,-0.00499859,-0.00489796,-0.00479107,-0.00467819,-0.00455964,-0.00443572,-0.00430679,-0.00417323,-0.00403541,-0.00389377,-0.00374872,-0.00360072,-0.00345024,-0.00329775,-0.00314374,-0.00298872,-0.0028332,-0.00267769,-0.00252271,-0.00236877,-0.00221639,-0.00206608,-0.00191833,-0.00177364,-0.00163248,-0.00149532,-0.00136258,-0.00123469,-0.00111204,-0.000994985,-0.000883854,-0.000778943,-0.000680508,-0.000588765,-0.000503885,-0.000425991,-0.000355159,-0.00029141,-0.000234709,-0.000184962,-0.000142012,-0.000105636,-7.55424e-05,-5.13658e-05,-3.26643e-05,-1.89156e-05,-9.51228e-06,-3.75831e-06,-8.63956e-07,5.8574e-08,-0