0,0,0,0,0,0,0,0,0,0,0,0,0,0,0,0,0,0,0,0,0,0,0,0,0,0,0,0,0,0,0,0,0,0,0,0,0,0,0,0,0,0,0,0,0,0,0,0,0,0,0,0,0,0,0,0,0,0,0,0,0,0,0,0,0,0,0,0,0,0,0,0,0,0,0,0,0,0,0,0,0,0,0,0,0,0,0,0,0,0,0,0,0,0,0,0,0,0,0,0,0,0,0,0,0,0,0,0,0,0,0,0,0,0,0,0,0,0,0,0,0,0,0,0,0,0,0,0
0,6.20499e-06,1.94307e-05,3.42489e-05,4.64557e-05,5.3143e-05,5.24353e-05,4.32059e-05,2.48546e-05,-2.85301e-06,-3.98965e-05,-8.6079e-05,-0.000141082,-0.000204504,-0.000275891,-0.000354752,-0.000440581,-0.000532862,-0.00063108,-0.000734729,-0.000843311,-0.000956345,-0.00107337,-0.00119392,-0.00131759,-0.00144394,-0.0015726,-0.00170317,-0.0018353,-0.00196864,-0.00210285,-0.00223762,-0.00237264,-0.00250759,-0.0026422,-0.00277617,-0.00290923,-0.00304111,-0.00317153,-0.00330023,-0.00342695,-0.00355141,-0.00367336,-0.00379253,-0.00390867,-0.0040215,-0.00413076,-0.0042362,-0.00433754,-0.00443453,-0.0045269,-0.00461438,-0.00469672,-0.00477367,-0.00484496,-0.00491036,-0.00496961,-0.0050225,-0.00506878,-0.00510825,-0.00514071,-0.00516596,-0.00518383,-0.00519416,-0.00519682,-0.00519167,-0.00517862,-0.0051576,-0.00512855,-0.00509144,-0.00504628,-0.00499308,-0.00493192,-0.00486288,-0.00478608,-0.00470166,-0.00460982,-0.00451076,-0.00440473,-0.00429203,-0.00417295,-0.00404785,-0.00391711,-0.00378112,-0.00364034,-0.00349521,-0.00334624,-0.00319393,-0.00303882,-0.00288147,-0.00272245,-0.00256235,-0.00240178,-0.00224133,-0.00208164,-0.00192331,-0.00176696,-0.00161322,-0.00146269,-0.00131596,-0.00117363,-0.00103626,-0.000904408,-0.000778584,-0.00065929,-0.000546993,-0.000442123,-0.000345073,-0.000256194,-0.000175792,-0.000104121,-4.13797e-05,1.22967e-05,5.68402e-05,9.22616e-05,0.00011866,0.000136238,0.000145317,0.000146364,0.000140022,0.000127148,0.000108874,8.66723e-05,6.24473e-05,3.86211e-05,1.81636e-05,4.38393e-06,0
0,9.95176e-06,2.81019e-05,4.64273e-05,5.88847e-05,6.10494e-05,4.98541e-05,2.33128e-05,-1.97322e-05,-7.98195e-05,-0.000157032,-0.000251121,-0.000361596,-0.000487799,-0.000628954,-0.000784206,-0.000952652,-0.00113336,-0.0013254,-0.00152783,-0.00173972,-0.00196018,-0.00218834,-0.00242333,-0.00266434,-0.00291058,-0.00316128,-0.00341573,-0.00367321,-0.00393304,-0.00419459,-0.00445721,-0.0047203,-0.00498326,-0.00524554,-0.00550655,-0.00576576,-0.00602262,-0.0062766,-0.00652718,-0.00677383,-0.00701604,-0.00725328,-0.00748504,-0.00771081,-0.00793008,-0.00814232,-0.00834702,-0.00854368,-0.00873177,-0.0089108,-0.00908025,-0.00923963,-0.00938845,-0.00952621,-0.00965245,-0.0097667,-0.00986853,-0.00995749,-0.0100332,-0.0100953,-0.0101433,-0.010177,-0.0101961,-0.0102004,-0.0101895,-0.0101633,-0.0101217,-0.0100645,-0.00999186,-0.00990363,-0.00979991,-0.00968083,-0.00954657,-0.00939736,-0.0092335,-0.00905535,-0.00886333,-0.00865792,-0.00843968,-0.00820919,-0.00796714,-0.00771424,-0.00745128,-0.00717909,-0.00689857,-0.00661065,-0.00631631,-0.00601659,-0.00571254,-0.00540526,-0.00509586,-0.0047855,-0.00447534,-0.00416655,-0.00386031,-0.0035578,-0.00326018,-0.00296862,-0.00268425,-0.00240818,-0.00214149,-0.00188523,-0.00164037,-0.00140786,-0.00118858,-0.000983343,-0.00079288,-0.000617849,-0.000458815,-0.000316242,-0.000190487,-8.17834e-05,9.76854e-06,8.4221e-05,0.000141797,0.000182916,0.000208224,0.000218632,0.000215368,0.000200033,0.000174679,0.000141888,0.000104862,6.74683e-05,3.42118e-05,1.00294e-05,0
0,1.03065e-05,2.72001e-05,4.1223e-05,4.543e-05,3.46695e-05,5.24078e-06,-4.5364e-05,-0.000118691,-0.000215528,-0.000336078,-0.000480096,-0.000647003,-0.000835975,-0.00104601,-0.00127597,-0.00152466,-0.0017908,-0.00207313,-0.00237033,-0.00268112,-0.00300425,-0.00333847,-0.00368258,-0.0040354,-0.0043958,-0.00476269,-0.00513501,-0.00551174,-0.00589189,-0.00627452,-0.00665871,-0.00704355,-0.00742818,-0.00781177,-0.00819346,-0.00857247,-0.00894799,-0.00931923,-0.00968542,-0.0100458,-0.0103996,-0.010746,-0.0110843,-0.0114138,-0.0117336,-0.0120431,-0.0123414,-0.0126279,-0.0129018,-0.0131623,-0.0134087,-0.0136404,-0.0138565,-0.0140564,-0.0142394,-0.0144049,-0.0145521,-0.0146806,-0.0147897,-0.0148789,-0.0149477,-0.0149956,-0.0150221,-0.0150271,-0.01501,-0.0149708,-0.0149091,-0.0148249,-0.0147182,-0.0145889,-0.0144373,-0.0142633,-0.0140674,-0.0138499,-0.0136112,-0.0133519,-0.0130725,-0.0127738,-0.0124565,-0.0121216,-0.01177,-0.0114027,-0.0110209,-0.0106258,-0.0102187,-0.00980083,-0.0093737,-0.00893876,-0.00849754,-0.00805159,-0.00760253,-0.00715199,-0.00670164,-0.00625315,-0.00580822,-0.00536851,-0.00493571,-0.00451147,-0.00409741,-0.00369511,-0.0033061,-0.00293188,-0.00257384,-0.00223333,-0.00191159,-0.00160976,-0.00132888,-0.00106988,-0.000833549,-0.000620522,-0.000431286,-0.000266147,-0.000125218,-8.39503e-06,8.46722e-05,0.000154607,0.000202349,0.000229193,0.000236852,0.000227513,0.000203911,0.000169401,0.000128015,8.45001e-05,4.43189e-05,1.36879e-05,0
0,8.23361e-06,1.91889e-05,2.30809e-05,1.26678e-05,-1.74614e-05,-7.12623e-05,-0.000151485,-0.00025988,-0.000397383,-0.000564274,-0.000760316,-0.000984873,-0.001237,-0.00151553,-0.00181912,-0.00214632,-0.0024956,-0.00286538,-0.00325408,-0.0036601,-0.00408186,-0.0045178,-0.00496641,-0.0054262,-0.00589573,-0.0063736,-0.00685844,-0.00734896,-0.00784388,-0.00834196,-0.008842,-0.00934286,-0.00984338,-0.0103425,-0.0108391,-0.0113321,-0.0118204,-0.0123032,-0.0127792,-0.0132476,-0.0137073,-0.0141573,-0.0145967,-0.0150244,-0.0154395,-0.015841,-0.0162279,-0.0165992,-0.016954,-0.0172914,-0.0176103,-0.0179099,-0.0181893,-0.0184475,-0.0186837,-0.018897,-0.0190867,-0.0192519,-0.019392,-0.0195062,-0.0195939,-0.0196545,-0.0196875,-0.0196926,-0.0196691,-0.019617,-0.019536,-0.0194258,-0.0192866,-0.0191183,-0.018921,-0.0186952,-0.018441,-0.018159,-0.0178497,-0.0175139,-0.0171523,-0.0167659,-0.0163556,-0.0159226,-0.0154681,-0.0149935,-0.0145003,-0.0139899,-0.013464,-0.0129243,-0.0123726,-0.0118109,-0.011241,-0.0106649,-0.0100847,-0.00950248,-0.00892036,-0.00834048,-0.00776496,-0.00719595,-0.00663558,-0.00608595,-0.00554911,-0.00502709,-0.00452182,-0.00403519,-0.00356898,-0.00312488,-0.00270447,-0.00230918,-0.00194034,-0.00159909,-0.00128643,-0.00100313,-0.000749809,-0.000526818,-0.00033428,-0.000172039,-3.96349e-05,6.37328e-05,0.000139244,0.000188504,0.000213599,0.000217151,0.000202376,0.000173148,0.000134042,9.03909e-05,4.83674e-05,1.52246e-05,0
0,4.64219e-06,6.30952e-06,-4.2724e-06,-3.41441e-05,-8.8631e-05,-0.00017167,-0.000286035,-0.000433519,-0.000615094,-0.000831053,-0.00108114,-0.00136465,-0.00168055,-0.00202753,-0.00240408,-0.00280856,-0.0032392,-0.00369421,-0.00417173,-0.0046699,-0.00518688,-0.00572084,-0.00626996,-0.0068325,-0.00740673,-0.00799097,-0.00858359,-0.00918301,-0.0097877,-0.0103962,-0.0110069,-0.0116186,-0.0122298,-0.0128391,-0.0134453,-0.014047,-0.0146429,-0.0152319,-0.0158126,-0.0163838,-0.0169443,-0.0174928,-0.0180282,-0.0185493,-0.0190548,-0.0195435,-0.0200144,-0.0204661,-0.0208975,-0.0213075,-0.021695,-0.0220587,-0.0223977,-0.0227108,-0.022997,-0.0232553,-0.0234847,-0.0236843,-0.0238532,-0.0239906,-0.0240958,-0.0241681,-0.0242068,-0.0242115,-0.0241817,-0.0241171,-0.0240173,-0.0238824,-0.0237121,-0.0235067,-0.0232663,-0.0229913,-0.022682,-0.0223391,-0.0219633,-0.0215553,-0.0211163,-0.0206472,-0.0201493,-0.019624,-0.0190728,-0.0184972,-0.0178991,-0.0172803,-0.0166427,-0.0159884,-0.0153196,-0.0146385,-0.0139474,-0.0132488,-0.012545,-0.0118386,-0.0111322,-0.0104281,-0.00972915,-0.00903772,-0.00835641,-0.00768771,-0.00703409,-0.00639794,-0.0057816,-0.00518729,-0.00461714,-0.00407316,-0.00355723,-0.00307106,-0.0026162,-0.00219401,-0.00180566,-0.00145208,-0.00113397,-0.000851728,-0.000605499,-0.000395086,-0.000219939,-7.91235e-05,2.87277e-05,0.000105452,0.000153408,0.000175521,0.000175337,0.000157074,0.000125672,8.68723e-05,4.73641e-05,1.51055e-05,0
0,1.4635e-07,-9.75521e-06,-3.79572e-05,-9.09172e-05,-0.000173598,-0.000289702,-0.000441853,-0.000631747,-0.000860287,-0.00112771,-0.00143368,-0.00177744,-0.00215783,-0.00257342,-0.00302256,-0.00350343,-0.00401409,-0.00455253,-0.00511668,-0.00570446,-0.00631378,-0.00694256,-0.00758876,-0.00825037,-0.00892541,-0.00961196,-0.0103081,-0.0110121,-0.0117221,-0.0124364,-0.0131532,-0.013871,-0.0145881,-0.0153029,-0.0160139,-0.0167195,-0.0174182,-0.0181086,-0.0187892,-0.0194585,-0.0201151,-0.0207576,-0.0213845,-0.0219944,-0.022586,-0.0231578,-0.0237084,-0.0242365,-0.0247406,-0.0252196,-0.025672,-0.0260965,-0.0264919,-0.026857,-0.0271904,-0.0274911,-0.027758,-0.0279899,-0.028186,-0.0283452,-0.0284667,-0.0285498,-0.0285937,-0.0285979,-0.0285618,-0.0284851,-0.0283675,-0.0282089,-0.0280093,-0.0277687,-0.0274874,-0.0271658,-0.0268045,-0.026404,-0.0259653,-0.0254893,-0.0249771,-0.02443,-0.0238496,-0.0232372,-0.0225947,-0.021924,-0.021227,-0.0205059,-0.0197629,-0.0190004,-0.018221,-0.0174272,-0.0166216,-0.0158071,-0.0149864,-0.0141625,-0.0133381,-0.0125163,-0.0117,-0.0108922,-0.0100956,-0.00931329,-0.00854801,-0.00780252,-0.00707949,-0.00638148,-0.00571094,-0.00507016,-0.00446128,-0.00388627,-0.00334691,-0.00284474,-0.0023811,-0.00195704,-0.00157335,-0.00123051,-0.00092866,-0.000667592,-0.000446699,-0.000264949,-0.000120844,-1.23877e-05,6.29642e-05,0.000108341,0.000127502,0.000124886,0.000105669,7.58601e-05,4.24649e-05,1.37969e-05,0
0,-4.86841e-06,-2.78278e-05,-7.58501e-05,-0.000154552,-0.000268321,-0.000420451,-0.000613272,-0.000848265,-0.00112617,-0.00144709,-0.00181059,-0.00221577,-0.00266138,-0.00314585,-0.00366739,-0.00422404,-0.00481368,-0.00543412,-0.0060831,-0.00675835,-0.00745756,-0.00817845,-0.00891875,-0.00967622,-0.0104487,-0.011234,-0.01203,-0.0128346,-0.0136459,-0.0144619,-0.0152807,-0.0161003,-0.0169191,-0.017735,-0.0185465,-0.0193516,-0.0201488,-0.0209364,-0.0217125,-0.0224757,-0.0232242,-0.0239564,-0.0246708,-0.0253656,-0.0260392,-0.0266902,-0.0273169,-0.0279178,-0.0284913,-0.0290359,-0.0295501,-0.0300325,-0.0304816,-0.030896,-0.0312743,-0.0316153,-0.0319177,-0.0321804,-0.0324021,-0.032582,-0.032719,-0.0328122,-0.032861,-0.0328646,-0.0328226,-0.0327345,-0.0326001,-0.0324191,-0.0321916,-0.0319177,-0.0315978,-0.0312322,-0.0308216,-0.0303667,-0.0298686,-0.0293282,-0.028747,-0.0281262,-0.0274677,-0.0267731,-0.0260443,-0.0252836,-0.024493,-0.0236752,-0.0228324,-0.0219676,-0.0210834,-0.0201827,-0.0192685,-0.018344,-0.0174122,-0.0164764,-0.0155398,-0.0146057,-0.0136774,-0.0127582,-0.0118514,-0.0109601,-0.0100875,-0.00923665,-0.00841062,-0.00761223,-0.0068442,-0.0061091,-0.00540933,-0.00474708,-0.00412434,-0.00354284,-0.00300405,-0.00250917,-0.00205908,-0.00165431,-0.00129506,-0.000981098,-0.000711805,-0.00048609,-0.000302379,-0.000158572,-5.20154e-05,2.05428e-05,6.29873e-05,7.98833e-05,7.65371e-05,5.90905e-05,3.46752e-05,1.16589e-05,0
0,-1.01629e-05,-4.71064e-05,-0.000116425,-0.000222744,-0.000369722,-0.000560113,-0.000795835,-0.00107806,-0.00140727,-0.00178338,-0.00220578,-0.00267343,-0.00318493,-0.00373858,-0.00433245,-0.00496441,-0.00563222,-0.0063335,-0.00706583,-0.00782676,-0.00861379,-0.00942445,-0.0102563,-0.0111068,-0.0119737,-0.0128546,-0.0137471,-0.014649,-0.015558,-0.0164721,-0.0173891,-0.0183068,-0.0192233,-0.0201365,-0.0210445,-0.0219454,-0.0228371,-0.0237178,-0.0245857,-0.0254389,-0.0262755,-0.0270938,-0.0278919,-0.028668,-0.0294203,-0.0301471,-0.0308467,-0.0315172,-0.032157,-0.0327644,-0.0333377,-0.0338753,-0.0343757,-0.0348373,-0.0352585,-0.035638,-0.0359744,-0.0362664,-0.0365128,-0.0367124,-0.0368643,-0.0369674,-0.0370209,-0.0370243,-0.0369768,-0.036878,-0.0367277,-0.0365256,-0.0362719,-0.0359667,-0.0356102,-0.0352031,-0.0347459,-0.0342397,-0.0336853,-0.0330841,-0.0324375,-0.0317471,-0.0310146,-0.030242,-0.0294316,-0.0285855,-0.0277062,-0.0267965,-0.0258591,-0.0248969,-0.023913,-0.0229107,-0.021893,-0.0208636,-0.0198258,-0.0187831,-0.0177391,-0.0166975,-0.0156618,-0.0146356,-0.0136225,-0.0126261,-0.0116499,-0.0106971,-0.00977108,-0.00887498,-0.0080118,-0.00718436,-0.00639528,-0.00564698,-0.00494164,-0.00428116,-0.00366717,-0.003101,-0.00258362,-0.00211565,-0.00169732,-0.00132845,-0.0010084,-0.000736085,-0.000509882,-0.000327652,-0.000186686,-8.3678e-05,-1.46898e-05,2.48907e-05,4.04057e-05,3.80102e-05,2.47937e-05,8.95272e-06,0
0,-1.55878e-05,-6.70498e-05,-0.000158601,-0.0002938,-0.000475484,-0.000705765,-0.000986062,-0.00131714,-0.00169918,-0.00213183,-0.00261426,-0.00314525,-0.00372322,-0.00434634,-0.0050125,-0.00571944,-0.00646475,-0.00724592,-0.00806036,-0.00890545,-0.00977852,-0.0106769,-0.011598,-0.0125392,-0.0134979,-0.0144716,-0.0154577,-0.0164538,-0.0174574,-0.0184663,-0.0194781,-0.0204906,-0.0215014,-0.0225084,-0.0235095,-0.0245024,-0.0254852,-0.0264557,-0.0274118,-0.0283516,-0.0292729,-0.0301739,-0.0310525,-0.0319067,-0.0327346,-0.0335342,-0.0343037,-0.0350411,-0.0357446,-0.0364123,-0.0370424,-0.0376331,-0.0381828,-0.0386897,-0.0391522,-0.0395688,-0.0399379,-0.0402583,-0.0405285,-0.0407473,-0.0409136,-0.0410265,-0.041085,-0.0410884,-0.041036,-0.0409275,-0.0407624,-0.0405408,-0.0402624,-0.0399277,-0.0395368,-0.0390905,-0.0385895,-0.0380346,-0.0374272,-0.0367684,-0.0360599,-0.0353033,-0.0345007,-0.0336542,-0.0327661,-0.0318389,-0.0308752,-0.0298781,-0.0288504,-0.0277954,-0.0267164,-0.0256168,-0.0245002,-0.0233703,-0.0222308,-0.0210855,-0.0199384,-0.0187932,-0.0176539,-0.0165244,-0.0154087,-0.0143104,-0.0132334,-0.0121814,-0.0111578,-0.0101662,-0.00920966,-0.00829136,-0.00741412,-0.00658058,-0.00579309,-0.00505374,-0.00436431,-0.00372625,-0.00314065,-0.00260822,-0.00212926,-0.00170363,-0.00133075,-0.00100951,-0.000738331,-0.000515059,-0.000336986,-0.000200806,-0.00010259,-3.77457e-05,-9.79172e-07,1.37744e-05,1.34319e-05,5.86494e-06,0
0,-2.10492e-05,-8.72943e-05,-0.000201617,-0.00036649,-0.000583876,-0.000855182,-0.00118125,-0.0015624,-0.00199841,-0.00248863,-0.00303197,-0.00362698,-0.0042719,-0.0049647,-0.00570313,-0.00648476,-0.00730703,-0.00816728,-0.00906277,-0.00999071,-0.0109483,-0.0119327,-0.0129412,-0.0139709,-0.0150191,-0.0160831,-0.0171602,-0.0182477,-0.0193432,-0.020444,-0.0215477,-0.0226518,-0.0237539,-0.0248516,-0.0259425,-0.0270245,-0.0280951,-0.0291522,-0.0301935,-0.0312168,-0.0322199,-0.0332006,-0.0341568,-0.0350864,-0.0359871,-0.036857,-0.0376939,-0.0384959,-0.0392607,-0.0399866,-0.0406715,-0.0413136,-0.0419109,-0.0424616,-0.0429641,-0.0434166,-0.0438176,-0.0441655,-0.044459,-0.0446967,-0.0448775,-0.0450002,-0.045064,-0.045068,-0.0450116,-0.0448943,-0.0447158,-0.0444759,-0.0441746,-0.0438123,-0.0433892,-0.042906,-0.0423636,-0.0417629,-0.0411051,-0.0403918,-0.0396246,-0.0388053,-0.0379361,-0.0370192,-0.0360572,-0.0350526,-0.0340085,-0.0329278,-0.0318139,-0.03067,-0.0294998,-0.028307,-0.0270953,-0.0258688,-0.0246313,-0.0233871,-0.0221402,-0.0208949,-0.0196552,-0.0184255,-0.0172098,-0.0160123,-0.014837,-0.0136879,-0.0125687,-0.0114831,-0.0104346,-0.00942646,-0.00846183,-0.00754351,-0.00667404,-0.00585569,-0.0050904,-0.00437974,-0.00372495,-0.00312682,-0.00258575,-0.00210168,-0.00167406,-0.00130188,-0.000983561,-0.00071701,-0.000499557,-0.000327944,-0.000198301,-0.000106121,-4.62232e-05,-1.27162e-05,1.04993e-06,2.52881e-06,0
0,-2.64879e-05,-0.000107596,-0.000244942,-0.000439929,-0.00069362,-0.00100668,-0.00137933,-0.00181137,-0.00230217,-0.00285071,-0.0034556,-0.00411514,-0.00482734,-0.00558998,-0.00640062,-0.00725667,-0.00815542,-0.00909404,-0.0100697,-0.0110793,-0.0121201,-0.013189,-0.0142831,-0.0153994,-0.0165351,-0.0176873,-0.0188531,-0.0200297,-0.0212145,-0.0224047,-0.0235976,-0.0247906,-0.0259812,-0.0271668,-0.0283449,-0.0295131,-0.0306688,-0.0318098,-0.0329335,-0.0340376,-0.0351198,-0.0361776,-0.0372089,-0.0382114,-0.0391826,-0.0401205,-0.0410227,-0.0418871,-0.0427116,-0.0434939,-0.044232,-0.0449238,-0.0455674,-0.0461609,-0.0467023,-0.04719,-0.0476222,-0.0479973,-0.0483138,-0.0485703,-0.0487656,-0.0488986,-0.0489681,-0.0489735,-0.048914,-0.0487891,-0.0485984,-0.0483419,-0.0480194,-0.0476314,-0.0471782,-0.0466604,-0.046079,-0.045435,-0.0447298,-0.0439648,-0.0431419,-0.042263,-0.0413304,-0.0403465,-0.0393138,-0.0382354,-0.0371142,-0.0359535,-0.0347567,-0.0335275,-0.0322696,-0.0309869,-0.0296836,-0.0283637,-0.0270315,-0.0256913,-0.0243477,-0.0230049,-0.0216675,-0.02034,-0.0190267,-0.017732,-0.0164603,-0.0152156,-0.0140021,-0.0128237,-0.0116842,-0.0105869,-0.0095353,-0.00853235,-0.0075808,-0.0066831,-0.00584135,-0.00505729,-0.00433226,-0.00366719,-0.0030626,-0.0025185,-0.00203445,-0.0016095,-0.00124216,-0.000930413,-0.000671662,-0.000462741,-0.000299886,-0.00017872,-9.42346e-05,-4.07721e-05,-1.20101e-05,-9.60586e-07,0
0,-3.18667e-05,-0.000127792,-0.000288209,-0.000513481,-0.000803775,-0.00115899,-0.00157871,-0.00206217,-0.00260828,-0.00321563,-0.0038825,-0.0046069,-0.00538658,-0.00621911,-0.00710186,-0.00803206,-0.00900683,-0.0100232,-0.0110781,-0.0121685,-0.0132913,-0.0144433,-0.0156215,-0.0168229,-0.0180443,-0.0192827,-0.0205352,-0.0217988,-0.0230706,-0.0243478,-0.0256276,-0.0269072,-0.0281839,-0.0294549,-0.0307177,-0.0319696,-0.033208,-0.0344303,-0.035634,-0.0368166,-0.0379755,-0.0391083,-0.0402126,-0.0412858,-0.0423255,-0.0433295,-0.0442952,-0.0452204,-0.0461028,-0.0469401,-0.04773,-0.0484705,-0.0491595,-0.0497948,-0.0503745,-0.0508968,-0.0513599,-0.0517619,-0.0521015,-0.052377,-0.0525873,-0.052731,-0.0528071,-0.0528147,-0.0527532,-0.0526219,-0.0524206,-0.052149,-0.0518072,-0.0513954,-0.0509141,-0.050364,-0.049746,-0.0490612,-0.0483111,-0.0474972,-0.0466215,-0.0456859,-0.0446928,-0.0436449,-0.0425448,-0.0413955,-0.0402004,-0.0389628,-0.0376863,-0.0363747,-0.0350321,-0.0336626,-0.0322703,-0.0308598,-0.0294355,-0.028002,-0.026564,-0.0251261,-0.0236931,-0.0222696,-0.0208605,-0.0194702,-0.0181033,-0.0167643,-0.0154575,-0.014187,-0.0129569,-0.0117708,-0.0106322,-0.00954451,-0.00851053,-0.00753293,-0.00661397,-0.00575556,-0.0049592,-0.00422595,-0.00355644,-0.00295083,-0.00240877,-0.00192942,-0.0015114,-0.00115279,-0.000851113,-0.000603329,-0.000405813,-0.000254359,-0.000144174,-6.98737e-05,-2.54968e-05,-4.53572e-06,0
0,-3.71631e-05,-0.000147777,-0.000331166,-0.000586697,-0.000913659,-0.00131118,-0.00177818,-0.00231332,-0.00291503,-0.00358146,-0.00431054,-0.00509995,-0.00594719,-0.00684957,-0.00780427,-0.00880831,-0.00985865,-0.0109521,-0.0120856,-0.0132558,-0.0144595,-0.0156935,-0.0169546,-0.0182394,-0.0195449,-0.0208679,-0.0222053,-0.023554,-0.0249109,-0.0262732,-0.0276377,-0.0290018,-0.0303623,-0.0317167,-0.0330619,-0.0343954,-0.0357142,-0.0370158,-0.0382974,-0.0395564,-0.0407901,-0.0419959,-0.0431711,-0.0443133,-0.0454199,-0.0464883,-0.0475161,-0.0485007,-0.0494397,-0.0503309,-0.0511718,-0.0519601,-0.0526936,-0.0533702,-0.0539879,-0.0545445,-0.0550383,-0.0554675,-0.0558303,-0.0561253,-0.056351,-0.0565063,-0.0565898,-0.0566009,-0.0565386,-0.0564024,-0.0561919,-0.0559069,-0.0555476,-0.055114,-0.0546068,-0.0540266,-0.0533743,-0.0526512,-0.0518588,-0.0509986,-0.0500726,-0.0490831,-0.0480324,-0.0469231,-0.0457584,-0.0445411,-0.0432748,-0.0419631,-0.0406096,-0.0392184,-0.0377937,-0.0363397,-0.034861,-0.0333622,-0.031848,-0.0303232,-0.0287927,-0.0272615,-0.0257344,-0.0242166,-0.0227128,-0.0212279,-0.0197668,-0.0183342,-0.0169346,-0.0155724,-0.0142518,-0.0129768,-0.0117511,-0.0105782,-0.00946117,-0.0084029,-0.00740583,-0.00647203,-0.00560316,-0.00480044,-0.00406466,-0.0033961,-0.00279455,-0.0022593,-0.00178911,-0.00138219,-0.0010362,-0.000748253,-0.0005149,-0.000332137,-0.000195411,-9.9637e-05,-3.92283e-05,-8.14926e-06,0
0,-4.23638e-05,-0.000167481,-0.000373641,-0.000659263,-0.00102278,-0.00146256,-0.00197684,-0.00256372,-0.00322109,-0.00394667,-0.004738,-0.00559244,-0.00650718,-0.00747928,-0.00850569,-0.00958325,-0.0107087,-0.0118788,-0.0130901,-0.0143393,-0.015623,-0.0169378,-0.0182805,-0.0196475,-0.0210357,-0.0224418,-0.0238624,-0.0252945,-0.0267348,-0.0281803,-0.0296278,-0.0310744,-0.032517,-0.0339527,-0.0353785,-0.0367916,-0.038189,-0.039568,-0.0409257,-0.0422593,-0.043566,-0.0448431,-0.0460879,-0.0472976,-0.0484695,-0.0496011,-0.0506897,-0.0517326,-0.0527275,-0.0536716,-0.0545627,-0.0553982,-0.056176,-0.0568936,-0.057549,-0.0581401,-0.0586648,-0.0591214,-0.059508,-0.0598231,-0.0600651,-0.0602328,-0.0603249,-0.0603406,-0.0602789,-0.0601393,-0.0599213,-0.0596248,-0.0592498,-0.0587966,-0.0582655,-0.0576574,-0.0569732,-0.0562142,-0.0553818,-0.0544778,-0.0535042,-0.0524633,-0.0513575,-0.0501896,-0.0489627,-0.0476801,-0.0463451,-0.0449616,-0.0435336,-0.0420651,-0.0405605,-0.0390243,-0.0374612,-0.035876,-0.0342736,-0.0326592,-0.0310377,-0.0294145,-0.0277946,-0.0261832,-0.0245856,-0.0230069,-0.0214521,-0.0199262,-0.0184339,-0.0169799,-0.0155687,-0.0142044,-0.012891,-0.0116322,-0.0104314,-0.00929148,-0.00821523,-0.00720486,-0.00626223,-0.00538872,-0.00458528,-0.00385237,-0.00318992,-0.00259739,-0.00207367,-0.00161713,-0.00122562,-0.000896415,-0.000626263,-0.000411383,-0.000247483,-0.000129786,-5.30768e-05,-1.1769e-05,0
0,-4.74619e-05,-0.000186862,-0.000415525,-0.000730965,-0.00113079,-0.00161262,-0.00217403,-0.0028125,-0.00352543,-0.00431007,-0.00516355,-0.00608288,-0.00706495,-0.00810655,-0.00920437,-0.010355,-0.0115551,-0.0128012,-0.0140897,-0.0154171,-0.0167799,-0.0181746,-0.0195977,-0.0210458,-0.0225154,-0.0240032,-0.0255057,-0.0270197,-0.0285418,-0.0300689,-0.0315978,-0.0331252,-0.0346482,-0.0361636,-0.0376683,-0.0391593,-0.0406337,-0.0420885,-0.0435207,-0.0449274,-0.0463057,-0.0476527,-0.0489657,-0.0502417,-0.0514779,-0.0526717,-0.0538201,-0.0549206,-0.0559705,-0.0569671,-0.0579079,-0.0587904,-0.0596122,-0.0603709,-0.0610641,-0.0616899,-0.062246,-0.0627305,-0.0631416,-0.0634776,-0.063737,-0.0639183,-0.0640203,-0.0640419,-0.0639824,-0.0638411,-0.0636174,-0.0633113,-0.0629227,-0.0624517,-0.0618991,-0.0612653,-0.0605515,-0.0597589,-0.058889,-0.0579437,-0.0569248,-0.0558349,-0.0546765,-0.0534524,-0.0521658,-0.05082,-0.0494187,-0.0479657,-0.0464652,-0.0449213,-0.0433388,-0.0417221,-0.0400763,-0.0384063,-0.0367172,-0.0350144,-0.033303,-0.0315887,-0.0298767,-0.0281725,-0.0264816,-0.0248093,-0.0231609,-0.0215416,-0.0199564,-0.0184103,-0.0169079,-0.0154536,-0.0140517,-0.0127061,-0.0114204,-0.0101977,-0.00904108,-0.00795286,-0.00693511,-0.00598942,-0.00511693,-0.00431826,-0.00359354,-0.00294238,-0.00236386,-0.00185654,-0.00141844,-0.00104702,-0.000739266,-0.000491623,-0.000300066,-0.00016013,-6.69561e-05,-1.5374e-05,0
0,-5.24546e-05,-0.000205896,-0.000456744,-0.000801657,-0.00123744,-0.001761,-0.00236923,-0.00305904,-0.00382728,-0.00467074,-0.00558614,-0.00657011,-0.00761923,-0.00872999,-0.00989886,-0.0111222,-0.0123964,-0.0137179,-0.0150829,-0.0164877,-0.0179288,-0.0194025,-0.0209051,-0.0224332,-0.023983,-0.0255513,-0.0271343,-0.0287289,-0.0303315,-0.0319388,-0.0335476,-0.0351545,-0.0367563,-0.0383499,-0.039932,-0.0414996,-0.0430495,-0.0445787,-0.0460841,-0.0475627,-0.0490114,-0.0504272,-0.0518073,-0.0531486,-0.0544483,-0.0557034,-0.0569111,-0.0580686,-0.0591731,-0.0602219,-0.0612123,-0.0621417,-0.0630076,-0.0638075,-0.064539,-0.0652,-0.0657881,-0.0663014,-0.0667379,-0.0670959,-0.0673737,-0.06757,-0.0676833,-0.0677125,-0.0676569,-0.0675156,-0.0672882,-0.0669744,-0.0665742,-0.0660878,-0.0655157,-0.0648586,-0.0641175,-0.0632936,-0.0623886,-0.0614042,-0.0603425,-0.059206,-0.0579972,-0.0567192,-0.055375,-0.0539683,-0.0525027,-0.0509822,-0.049411,-0.0477937,-0.0461348,-0.0444392,-0.042712,-0.0409584,-0.0391836,-0.0373933,-0.0355929,-0.033788,-0.0319844,-0.0301876,-0.0284034,-0.0266374,-0.0248952,-0.0231821,-0.0215035,-0.0198645,-0.0182701,-0.016725,-0.0152335,-0.0138,-0.0124281,-0.0111214,-0.00988289,-0.00871537,-0.00762105,-0.00660173,-0.00565872,-0.00479288,-0.00400451,-0.00329342,-0.0026589,-0.00209969,-0.001614,-0.00119953,-0.000853481,-0.000572538,-0.000352949,-0.000190548,-8.08131e-05,-1.89521e-05,0
0,-5.73416e-05,-0.000224572,-0.000497258,-0.000871246,-0.00134258,-0.00190744,-0.0025621,-0.00330286,-0.00412604,-0.00502797,-0.00600492,-0.00705317,-0.00816896,-0.00934849,-0.010588,-0.0118835,-0.0132313,-0.0146276,-0.0160684,-0.01755,-0.0190685,-0.0206203,-0.0222015,-0.0238085,-0.0254376,-0.0270852,-0.0287477,-0.0304216,-0.0321034,-0.0337897,-0.0354771,-0.0371621,-0.0388415,-0.040512,-0.0421704,-0.0438133,-0.0454375,-0.04704,-0.0486175,-0.0501668,-0.051685,-0.0531688,-0.0546151,-0.0560211,-0.0573835,-0.0586995,-0.059966,-0.0611802,-0.0623392,-0.0634401,-0.0644801,-0.0654567,-0.066367,-0.0672086,-0.067979,-0.0686758,-0.0692968,-0.0698399,-0.070303,-0.0706842,-0.070982,-0.0711946,-0.0713208,-0.0713595,-0.0713095,-0.0711702,-0.0709411,-0.0706217,-0.0702121,-0.0697125,-0.0691232,-0.068445,-0.0676789,-0.0668262,-0.0658883,-0.0648673,-0.0637651,-0.0625842,-0.0613273,-0.0599974,-0.0585979,-0.0571322,-0.0556041,-0.0540179,-0.0523778,-0.0506885,-0.0489546,-0.0471814,-0.0453739,-0.0435376,-0.041678,-0.0398007,-0.0379117,-0.0360166,-0.0341214,-0.032232,-0.0303543,-0.0284942,-0.0266575,-0.02485,-0.0230771,-0.0213443,-0.0196568,-0.0180195,-0.0164372,-0.0149143,-0.0134548,-0.0120625,-0.0107406,-0.00949226,-0.00831979,-0.00722527,-0.00621024,-0.00527575,-0.00442234,-0.00365003,-0.0029583,-0.00234613,-0.00181193,-0.00135363,-0.000968653,-0.000653943,-0.00040601,-0.000220972,-9.46203e-05,-2.24979e-05,0
0,-6.21242e-05,-0.000242885,-0.000537045,-0.000939675,-0.00144609,-0.00205178,-0.00275237,-0.0035436,-0.00442127,-0.0053812,-0.00641926,-0.00753134,-0.00871333,-0.00996115,-0.0112707,-0.0126379,-0.0140587,-0.0155291,-0.0170451,-0.0186027,-0.020198,-0.021827,-0.0234859,-0.0251709,-0.0268782,-0.0286042,-0.0303451,-0.0320973,-0.0338572,-0.0356214,-0.0373862,-0.0391483,-0.0409042,-0.0426505,-0.0443839,-0.0461011,-0.0477987,-0.0494735,-0.0511222,-0.0527415,-0.0543283,-0.0558793,-0.0573914,-0.0588614,-0.0602862,-0.0616628,-0.0629879,-0.0642588,-0.0654722,-0.0666254,-0.0677154,-0.0687394,-0.0696948,-0.0705788,-0.0713888,-0.0721225,-0.0727775,-0.0733515,-0.0738425,-0.0742484,-0.0745676,-0.0747984,-0.0749394,-0.0749892,-0.074947,-0.0748117,-0.074583,-0.0742603,-0.0738435,-0.0733329,-0.0727288,-0.0720319,-0.0712432,-0.070364,-0.0693957,-0.0683403,-0.0671998,-0.0659768,-0.064674,-0.0632944,-0.0618413,-0.0603185,-0.0587299,-0.0570795,-0.055372,-0.053612,-0.0518044,-0.0499545,-0.0480676,-0.0461493,-0.0442053,-0.0422416,-0.040264,-0.0382786,-0.0362917,-0.0343092,-0.0323375,-0.0303827,-0.0284508,-0.0265478,-0.0246795,-0.0228516,-0.0210696,-0.0193388,-0.017664,-0.0160501,-0.0145013,-0.0130217,-0.0116148,-0.0102838,-0.00903151,-0.00786012,-0.00677145,-0.00576679,-0.0048469,-0.00401203,-0.0032619,-0.00259569,-0.00201206,-0.00150917,-0.00108467,-0.000735763,-0.000459202,-0.00025138,-0.000108371,-2.60112e-05,0
0,-6.6805e-05,-0.000260836,-0.000576095,-0.00100691,-0.0015479,-0.00219388,-0.00293987,-0.00378103,-0.00471262,-0.00573002,-0.00682865,-0.00800402,-0.00925168,-0.0105672,-0.0119463,-0.0133846,-0.0148778,-0.0164217,-0.0180122,-0.019645,-0.0213162,-0.0230217,-0.0247574,-0.0265196,-0.0283043,-0.0301077,-0.031926,-0.0337555,-0.0355925,-0.0374335,-0.0392749,-0.041113,-0.0429444,-0.0447656,-0.0465732,-0.0483638,-0.0501339,-0.0518802,-0.0535993,-0.0552879,-0.0569428,-0.0585605,-0.060138,-0.0616718,-0.0631588,-0.0645958,-0.0659796,-0.0673071,-0.0685753,-0.0697812,-0.0709216,-0.0719938,-0.0729949,-0.0739222,-0.0747729,-0.0755446,-0.0762348,-0.0768412,-0.0773616,-0.0777939,-0.0781363,-0.0783871,-0.0785447,-0.0786078,-0.0785754,-0.0784464,-0.0782203,-0.0778966,-0.0774751,-0.0769559,-0.0763394,-0.0756263,-0.0748174,-0.073914,-0.0729177,-0.0718302,-0.0706537,-0.0693908,-0.0680441,-0.0666168,-0.0651122,-0.0635341,-0.0618864,-0.0601735,-0.0583998,-0.0565703,-0.0546901,-0.0527643,-0.0507987,-0.0487989,-0.0467709,-0.0447207,-0.0426545,-0.0405786,-0.0384995,-0.0364234,-0.0343569,-0.0323063,-0.030278,-0.0282783,-0.0263132,-0.0243887,-0.0225107,-0.0206845,-0.0189156,-0.0172089,-0.0155689,-0.0140001,-0.0125062,-0.0110908,-0.00975674,-0.0085067,-0.00734268,-0.00626622,-0.00527834,-0.00437953,-0.00356974,-0.00284841,-0.00221442,-0.00166617,-0.00120156,-0.000818009,-0.000512539,-0.000281785,-0.000122073,-2.94958e-05,0
0,-7.13866e-05,-0.000278431,-0.000614409,-0.00107295,-0.00164797,-0.00233368,-0.00312447,-0.00401494,-0.00499986,-0.00607411,-0.0072327,-0.00847075,-0.00978346,-0.0111661,-0.0126141,-0.0141228,-0.0156877,-0.0173045,-0.0189687,-0.0206761,-0.0224225,-0.0242036,-0.0260154,-0.0278539,-0.0297151,-0.031595,-0.0334898,-0.0353957,-0.037309,-0.039226,-0.0411429,-0.0430562,-0.0449623,-0.0468575,-0.0487385,-0.0506017,-0.0524436,-0.0542608,-0.0560499,-0.0578073,-0.0595299,-0.061214,-0.0628565,-0.064454,-0.0660032,-0.0675007,-0.0689434,-0.070328,-0.0716514,-0.0729104,-0.074102,-0.0752232,-0.076271,-0.0772426,-0.0781352,-0.0789463,-0.0796732,-0.0803135,-0.080865,-0.0813255,-0.081693,-0.0819658,-0.0821422,-0.0822208,-0.0822004,-0.08208,-0.081859,-0.0815367,-0.0811129,-0.0805877,-0.0799613,-0.0792344,-0.0784078,-0.0774827,-0.0764607,-0.0753436,-0.0741334,-0.0728327,-0.0714443,-0.0699712,-0.0684169,-0.0667852,-0.0650801,-0.063306,-0.0614675,-0.0595696,-0.0576175,-0.0556167,-0.0535728,-0.0514918,-0.0493798,-0.0472431,-0.045088,-0.0429211,-0.0407491,-0.0385786,-0.0364162,-0.0342687,-0.0321427,-0.0300447,-0.0279812,-0.0259584,-0.0239824,-0.022059,-0.0201939,-0.0183923,-0.0166591,-0.014999,-0.0134161,-0.0119141,-0.0104964,-0.00916577,-0.00792456,-0.00677457,-0.00571709,-0.00475287,-0.00388212,-0.00310451,-0.00241919,-0.00182477,-0.00131941,-0.000900767,-0.000566082,-0.000312227,-0.00013575,-3.2959e-05,0