-0,-0,-0,-0,-0,-0,-0,-0,-0,-0,-0,-0,-0,-0,-0,-0,-0,-0,-0,-0,-0,-0,-0,-0,-0,-0,-0,-0,-0,-0,-0,-0,-0,-0,-0,-0,-0,-0,-0,-0,-0,-0,-0,-0,-0,-0,-0,-0,-0,-0,-0,-0,-0,-0,-0,-0,-0,-0,-0,-0,-0,-0,-0,-0,-0,-0,-0,-0,-0,-0,-0,-0,-0,-0,-0,-0,-0,-0,-0,-0,-0,-0,-0,-0,-0,-0,-0,-0,-0,-0,-0,-0,-0,-0,-0,-0,-0,-0,-0,-0,-0,-0,-0,-0,-0,-0,-0,-0,-0,-0,-0,-0,-0,-0,-0,-0,-0,-0,-0,-0,-0,-0,-0,-0,-0,-0,-0,-0
-0,-6.20017e-06,-9.92346e-06,-1.02306e-05,-8.10093e-06,-4.46849e-06,2.38437e-08,4.96236e-06,1.00822e-05,1.52117e-05,2.02386e-05,2.50888e-05,2.97144e-05,3.40849e-05,3.81823e-05,4.19975e-05,4.55278e-05,4.87748e-05,5.17436e-05,5.44415e-05,5.68774e-05,5.90612e-05,6.10032e-05,6.2714e-05,6.42043e-05,6.54842e-05,6.65636e-05,6.74519e-05,6.81577e-05,6.8689e-05,6.9053e-05,6.92562e-05,6.93043e-05,6.92021e-05,6.8954e-05,6.85634e-05,6.80331e-05,6.73653e-05,6.65617e-05,6.56234e-05,6.4551e-05,6.3345e-05,6.20053e-05,6.05316e-05,5.89236e-05,5.71809e-05,5.53029e-05,5.32893e-05,5.11397e-05,4.88541e-05,4.64328e-05,4.38763e-05,4.11857e-05,3.83623e-05,3.54083e-05,3.23263e-05,2.91196e-05,2.5792e-05,2.23485e-05,1.87943e-05,1.5136e-05,1.13805e-05,7.53583e-06,3.61084e-06,-3.84793e-07,-4.44054e-06,-8.54504e-06,-1.26861e-05,-1.68508e-05,-2.10253e-05,-2.51953e-05,-2.93457e-05,-3.34609e-05,-3.75247e-05,-4.15207e-05,-4.54318e-05,-4.92409e-05,-5.29308e-05,-5.64841e-05,-5.98836e-05,-6.31123e-05,-6.61533e-05,-6.89904e-05,-7.16077e-05,-7.39903e-05,-7.61238e-05,-7.79948e-05,-7.9591e-05,-8.0901e-05,-8.1915e-05,-8.26242e-05,-8.30214e-05,-8.31008e-05,-8.28582e-05,-8.22911e-05,-8.13986e-05,-8.01813e-05,-7.8642e-05,-7.67849e-05,-7.4616e-05,-7.21433e-05,-6.93763e-05,-6.63264e-05,-6.30067e-05,-5.94322e-05,-5.56195e-05,-5.15873e-05,-4.73559e-05,-4.29477e-05,-3.83875e-05,-3.37021e-05,-2.89216e-05,-2.40791e-05,-1.92118e-05,-1.43623e-05,-9.57943e-06,-4.92109e-06,-4.56811e-07,3.72766e-06,7.52392e-06,1.07914e-05,1.3343e-05,1.49255e-05,1.51961e-05,1.37162e-05,1.00566e-05,4.39252e-06,-0
-0,-1.94307e-05,-2.8044e-05,-2.7025e-05,-1.88941e-05,-5.97963e-06,9.93706e-06,2.75807e-05,4.60589e-05,6.4751e-05,8.32259e-05,0.000101186,0.000118426,0.000134809,0.000150248,0.00016469,0.000178109,0.000190499,0.000201867,0.000212231,0.000221617,0.000230054,0.000237577,0.00024422,0.00025002,0.000255011,0.000259228,0.000262704,0.00026547,0.000267554,0.000268983,0.000269781,0.000269968,0.000269563,0.000268581,0.000267036,0.00026494,0.000262299,0.000259122,0.000255413,0.000251176,0.000246412,0.000241122,0.000235307,0.000228966,0.000222098,0.000214703,0.00020678,0.000198329,0.000189351,0.000179849,0.000169826,0.000159287,0.000148239,0.00013669,0.000124653,0.00011214,9.91688e-05,8.57576e-05,7.19288e-05,5.77072e-05,4.31211e-05,2.82018e-05,1.29838e-05,-2.49532e-06,-1.81946e-05,-3.40702e-05,-5.00751e-05,-6.61594e-05,-8.22706e-05,-9.83534e-05,-0.00011435,-0.000130202,-0.000145847,-0.000161222,-0.000176262,-0.000190904,-0.000205082,-0.000218729,-0.000231781,-0.000244174,-0.000255844,-0.000266729,-0.000276771,-0.000285913,-0.000294101,-0.000301285,-0.000307418,-0.000312458,-0.000316368,-0.000319115,-0.000320674,-0.000321021,-0.000320142,-0.000318028,-0.000314675,-0.000310087,-0.000304276,-0.000297256,-0.000289053,-0.000279697,-0.000269225,-0.000257681,-0.000245117,-0.000231591,-0.000217168,-0.00020192,-0.000185928,-0.00016928,-0.000152073,-0.000134413,-0.000116418,-9.82199e-05,-7.99649e-05,-6.18199e-05,-4.39761e-05,-2.66568e-05,-1.01267e-05,5.2949e-06,1.9216e-05,3.11481e-05,4.04761e-05,4.64266e-05,4.80511e-05,4.42837e-05,3.42372e-05,1.81636e-05,-0
-0,-3.4302e-05,-4.6399e-05,-4.10134e-05,-2.27231e-05,4.56205e-06,3.77605e-05,7.45487e-05,0.000113215,0.000152512,0.00019154,0.000229652,0.000266393,0.000301443,0.00033459,0.000365695,0.000394684,0.000421521,0.000446207,0.000468765,0.000489237,0.000507677,0.000524147,0.000538716,0.000551454,0.00056243,0.000571715,0.000579374,0.000585472,0.000590068,0.000593216,0.000594966,0.000595361,0.000594442,0.000592241,0.000588786,0.000584103,0.00057821,0.000571123,0.000562852,0.000553407,0.000542792,0.000531011,0.000518066,0.000503957,0.000488684,0.000472248,0.000454649,0.000435891,0.000415977,0.000394913,0.000372709,0.000349379,0.000324938,0.00029941,0.000272819,0.000245198,0.000216585,0.000187021,0.000156558,0.000125251,9.31617e-05,6.03609e-05,2.69243e-05,-7.06523e-06,-4.15179e-05,-7.63373e-05,-0.000111421,-0.00014666,-0.00018194,-0.00021714,-0.000252137,-0.0002868,-0.000320996,-0.00035459,-0.000387442,-0.000419412,-0.000450359,-0.000480141,-0.000508618,-0.000535652,-0.000561107,-0.00058485,-0.000606754,-0.000626698,-0.000644565,-0.000660248,-0.000673649,-0.000684676,-0.00069325,-0.000699301,-0.000702773,-0.00070362,-0.00070181,-0.000697324,-0.000690155,-0.000680313,-0.000667822,-0.000652717,-0.000635053,-0.000614897,-0.00059233,-0.00056745,-0.00054037,-0.000511219,-0.000480138,-0.00044729,-0.00041285,-0.000377013,-0.000339995,-0.00030203,-0.00026338,-0.000224334,-0.000185216,-0.000146391,-0.000108274,-7.13476e-05,-3.6173e-05,-3.41672e-06,2.61229e-05,5.14807e-05,7.1488e-05,8.47424e-05,8.96159e-05,8.4366e-05,6.74954e-05,3.86043e-05,-0
-0,-4.66308e-05,-5.89604e-05,-4.52549e-05,-1.23406e-05,3.42096e-05,8.99706e-05,0.000151512,0.000216223,0.000282138,0.000347794,0.000412111,0.000474305,0.000533813,0.000590245,0.000643341,0.000692942,0.000738966,0.000781389,0.000820231,0.000855543,0.000887403,0.000915903,0.000941146,0.000963242,0.000982301,0.000998435,0.00101175,0.00102235,0.00103034,0.0010358,0.00103881,0.00103945,0.00103778,0.00103386,0.00102774,0.00101946,0.00100906,0.000996551,0.000981965,0.000965316,0.000946615,0.000925869,0.000903083,0.000878262,0.000851406,0.000822521,0.00079161,0.00075868,0.000723741,0.000686807,0.000647899,0.000607041,0.000564266,0.000519614,0.000473133,0.00042488,0.000374924,0.000323341,0.000270219,0.000215657,0.000159765,0.000102665,4.44896e-05,-1.46162e-05,-7.44966e-05,-0.000134985,-0.000195902,-0.000257062,-0.000318265,-0.000379305,-0.000439967,-0.000500029,-0.000559262,-0.000617432,-0.000674301,-0.000729629,-0.000783174,-0.000834694,-0.000883949,-0.000930703,-0.000974724,-0.00101579,-0.00105367,-0.00108818,-0.0011191,-0.00114626,-0.00116948,-0.00118862,-0.00120354,-0.00121413,-0.00122027,-0.00122191,-0.00121898,-0.00121145,-0.00119931,-0.00118259,-0.00116132,-0.00113556,-0.00110542,-0.001071,-0.00103245,-0.00098994,-0.000943666,-0.00089385,-0.000840743,-0.000784624,-0.0007258,-0.000664612,-0.000601434,-0.000536677,-0.000470793,-0.000404287,-0.000337717,-0.000271711,-0.000206979,-0.000144333,-8.47123e-05,-2.92081e-05,2.08965e-05,6.40887e-05,9.85879e-05,0.000122323,0.000132952,0.00012798,0.000105049,6.24825e-05,-0
-0,-5.3491e-05,-6.12462e-05,-3.44924e-05,1.78192e-05,8.84922e-05,0.000171784,0.000263166,0.000359112,0.000456906,0.000554473,0.000650252,0.000743078,0.000832099,0.000916706,0.000996483,0.00107116,0.00114058,0.00120469,0.00126348,0.00131702,0.00136538,0.0014087,0.00144712,0.00148077,0.00150982,0.00153443,0.00155474,0.0015709,0.00158306,0.00159134,0.00159587,0.00159674,0.00159406,0.00158791,0.00157837,0.00156549,0.00154932,0.00152991,0.00150729,0.00148149,0.00145253,0.00142041,0.00138515,0.00134676,0.00130524,0.00126061,0.00121288,0.00116205,0.00110815,0.00105121,0.000991255,0.000928332,0.000862493,0.000793804,0.000722342,0.000648198,0.000571478,0.000492303,0.00041081,0.000327152,0.0002415,0.00015404,6.49773e-05,-2.54667e-05,-0.000117054,-0.000209528,-0.00030262,-0.000396043,-0.000489497,-0.000582667,-0.000675228,-0.000766843,-0.000857166,-0.000945844,-0.00103252,-0.00111682,-0.0011984,-0.00127688,-0.0013519,-0.00142311,-0.00149016,-0.00155271,-0.00161043,-0.00166301,-0.00171015,-0.00175159,-0.00178707,-0.00181635,-0.00183924,-0.00185556,-0.00186517,-0.00186795,-0.00186382,-0.00185273,-0.00183468,-0.00180969,-0.00177782,-0.00173918,-0.00169391,-0.00164219,-0.00158423,-0.00152029,-0.00145068,-0.00137574,-0.00129584,-0.00121142,-0.00112294,-0.00103093,-0.000935955,-0.000838648,-0.000739696,-0.000639863,-0.000539995,-0.000441036,-0.000344046,-0.000250226,-0.000160944,-7.77722e-05,-2.52381e-06,6.27035e-05,0.000115491,0.000153077,0.000172373,0.00017004,0.000142662,8.69717e-05,-0
-0,-5.29403e-05,-5.00459e-05,-4.80123e-06,7.2018e-05,0.000171735,0.000287375,0.000413362,0.000545282,0.000679672,0.000813838,0.000945711,0.00107372,0.00119669,0.00131377,0.00142436,0.00152806,0.00162462,0.00171391,0.00179593,0.0018707,0.00193834,0.00199898,0.00205281,0.00210001,0.00214077,0.0021753,0.0022038,0.00222646,0.00224348,0.00225502,0.00226124,0.00226228,0.00225829,0.00224937,0.00223563,0.00221714,0.00219398,0.00216621,0.00213387,0.00209701,0.00205565,0.00200982,0.00195953,0.00190481,0.00184566,0.0017821,0.00171415,0.00164184,0.00156519,0.00148426,0.0013991,0.00130976,0.00121633,0.00111891,0.00101761,0.000912564,0.000803921,0.000691858,0.000576572,0.00045828,0.000337225,0.000213674,8.79143e-05,-3.97401e-05,-0.000168953,-0.000299366,-0.000430599,-0.00056225,-0.000693897,-0.000825103,-0.00095541,-0.00108435,-0.00121144,-0.00133618,-0.00145808,-0.00157663,-0.00169133,-0.00180166,-0.00190712,-0.00200723,-0.00210149,-0.00218944,-0.00227063,-0.00234461,-0.00241098,-0.00246937,-0.00251941,-0.0025608,-0.00259325,-0.00261652,-0.00263041,-0.00263476,-0.00262947,-0.00261446,-0.00258974,-0.00255533,-0.00251133,-0.00245788,-0.00239518,-0.00232349,-0.00224311,-0.0021544,-0.00205779,-0.00195376,-0.00184285,-0.00172566,-0.00160284,-0.00147514,-0.00134336,-0.00120837,-0.00107115,-0.000932753,-0.000794359,-0.00065727,-0.000522941,-0.000393,-0.000269288,-0.000153888,-4.91719e-05,4.21589e-05,0.000117034,0.000171988,0.000203154,0.000206287,0.000176816,0.000109847,-0
-0,-4.37358e-05,-2.31427e-05,4.66697e-05,0.00015346,0.000287277,0.000440039,0.000605211,0.000777547,0.000952866,0.00112787,0.00129999,0.00146722,0.00162808,0.00178144,0.00192649,0.00206269,0.00218969,0.00230728,0.00241541,0.00251411,0.00260348,0.00268369,0.00275492,0.00281742,0.00287141,0.00291716,0.0029549,0.00298487,0.00300732,0.00302246,0.00303049,0.0030316,0.00302595,0.00301369,0.00299496,0.00296985,0.00293848,0.0029009,0.0028572,0.00280742,0.0027516,0.00268978,0.00262198,0.00254823,0.00246856,0.002383,0.00229157,0.00219432,0.0020913,0.00198256,0.00186818,0.00174827,0.00162292,0.00149228,0.00135651,0.00121577,0.00107029,0.000920305,0.00076607,0.000607887,0.000446079,0.000281004,0.000113047,-5.73719e-05,-0.000229806,-0.000403778,-0.000578783,-0.000754286,-0.000929731,-0.00110454,-0.0012781,-0.00144979,-0.00161899,-0.00178503,-0.00194726,-0.00210502,-0.00225762,-0.00240442,-0.00254474,-0.00267794,-0.00280339,-0.00292045,-0.00302854,-0.00312709,-0.00321556,-0.00329346,-0.00336032,-0.00341573,-0.00345931,-0.00349076,-0.00350981,-0.00351626,-0.00350996,-0.00349083,-0.00345886,-0.00341411,-0.00335669,-0.00328679,-0.00320468,-0.0031107,-0.00300526,-0.00288884,-0.00276201,-0.0026254,-0.00247972,-0.00232579,-0.00216447,-0.00199674,-0.00182366,-0.0016464,-0.00146623,-0.00128455,-0.00110291,-0.000922997,-0.00074669,-0.000576081,-0.000413505,-0.000261581,-0.000123252,-1.83429e-06,9.89458e-05,0.00017491,0.000221399,0.000233245,0.000204725,0.000129437,-0
-0,-2.51125e-05,2.09359e-05,0.000121923,0.000264489,0.000437634,0.000632326,0.000841176,0.00105818,0.0012785,0.00149826,0.00171439,0.00192451,0.00212677,0.00231979,0.00250255,0.00267434,0.0028347,0.00298334,0.00312016,0.00324516,0.00335844,0.00346017,0.00355058,0.00362993,0.0036985,0.00375657,0.00380445,0.00384243,0.00387079,0.00388978,0.00389966,0.00390065,0.00389296,0.00387677,0.00385225,0.00381952,0.00377871,0.00372991,0.00367322,0.00360869,0.00353639,0.00345637,0.00336865,0.00327329,0.00317033,0.00305979,0.00294173,0.00281622,0.00268331,0.0025431,0.00239568,0.0022412,0.00207979,0.00191164,0.00173696,0.00155598,0.00136898,0.00117627,0.000978181,0.000775106,0.000567461,0.000355705,0.000140334,-7.81159e-05,-0.000299073,-0.000521927,-0.000746034,-0.000970714,-0.00119526,-0.00141892,-0.00164095,-0.00186054,-0.0020769,-0.00228919,-0.00249659,-0.00269824,-0.00289331,-0.00308094,-0.00326032,-0.0034306,-0.003591,-0.00374072,-0.00387903,-0.00400519,-0.00411854,-0.00421844,-0.00430432,-0.00437564,-0.00443195,-0.00447285,-0.004498,-0.00450716,-0.00450013,-0.00447683,-0.00443723,-0.0043814,-0.00430951,-0.00422179,-0.00411859,-0.00400033,-0.00386753,-0.00372083,-0.00356092,-0.00338863,-0.00320486,-0.00301064,-0.00280709,-0.00259543,-0.00237703,-0.00215335,-0.00192601,-0.00169678,-0.00146757,-0.00124052,-0.00101795,-0.000802427,-0.000596806,-0.000404251,-0.000228287,-7.28438e-05,5.76937e-05,0.000158438,0.000223946,0.000248149,0.000224248,0.000144522,-0
-0,3.3706e-06,8.31196e-05,0.000222307,0.000406757,0.000624646,0.000866152,0.00112315,0.00138898,0.00165819,0.00192638,0.00219004,0.00244637,0.00269323,0.00292896,0.00315233,0.00336246,0.00355877,0.0037409,0.00390867,0.00406207,0.00420117,0.00432617,0.0044373,0.00453485,0.00461914,0.00469052,0.0047493,0.00479585,0.00483047,0.00485349,0.00486519,0.00486583,0.00485568,0.00483493,0.00480379,0.00476242,0.00471096,0.00464955,0.00457827,0.00449723,0.00440648,0.00430611,0.00419615,0.00407666,0.00394771,0.00380934,0.00366163,0.00350464,0.00333849,0.00316328,0.00297916,0.00278628,0.00258485,0.00237509,0.00215727,0.00193169,0.0016987,0.00145868,0.00121207,0.000959345,0.000701025,0.000437683,0.000169937,-0.00010155,-0.000376067,-0.00065286,-0.000931132,-0.00121004,-0.00148872,-0.00176625,-0.00204169,-0.00231406,-0.00258239,-0.00284564,-0.0031028,-0.00335283,-0.00359469,-0.00382735,-0.00404978,-0.00426098,-0.00445997,-0.00464577,-0.00481748,-0.00497422,-0.00511515,-0.00523951,-0.00534659,-0.00543573,-0.00550638,-0.00555805,-0.00559033,-0.0056029,-0.00559556,-0.00556818,-0.00552074,-0.00545333,-0.00536613,-0.00525947,-0.00513374,-0.00498949,-0.00482736,-0.00464811,-0.00445263,-0.00424192,-0.0040171,-0.00377943,-0.00353029,-0.0032712,-0.00300382,-0.00272995,-0.00245158,-0.00217085,-0.00189011,-0.00161191,-0.00133905,-0.0010746,-0.000821938,-0.000584777,-0.000367226,-0.00017383,-9.62289e-06,0.000119814,0.000208279,0.000248857,0.000233782,0.00015423,-0
-0,4.19373e-05,0.000163949,0.000348673,0.000581372,0.0008496,0.0011429,0.00145255,0.0017713,0.00209319,0.00241333,0.00272781,0.00303347,0.00332786,0.00360906,0.00387565,0.0041266,0.00436118,0.00457895,0.00477968,0.00496332,0.00512993,0.0052797,0.00541289,0.00552981,0.00563083,0.00571631,0.00578663,0.00584219,0.00588336,0.00591048,0.00592389,0.00592391,0.00591082,0.00588486,0.00584627,0.00579524,0.00573195,0.00565653,0.00556912,0.00546982,0.00535872,0.0052359,0.00510144,0.00495541,0.00479787,0.00462892,0.00444862,0.0042571,0.00405448,0.0038409,0.00361653,0.0033816,0.00313635,0.00288106,0.00261605,0.00234171,0.00205847,0.00176678,0.00146719,0.00116027,0.000846666,0.000527063,0.000202213,-0.00012708,-0.000459958,-0.000795508,-0.00113277,-0.00147073,-0.00180834,-0.0021445,-0.00247808,-0.00280791,-0.00313279,-0.00345151,-0.00376284,-0.00406554,-0.00435836,-0.00464007,-0.00490944,-0.00516526,-0.00540635,-0.00563156,-0.0058398,-0.00603001,-0.0062012,-0.00635245,-0.00648291,-0.0065918,-0.00667845,-0.00674227,-0.00678279,-0.00679962,-0.0067925,-0.00676129,-0.00670597,-0.00662664,-0.00652354,-0.00639703,-0.00624761,-0.00607592,-0.00588275,-0.00566899,-0.00543573,-0.00518416,-0.00491564,-0.00463168,-0.00433393,-0.00402421,-0.00370452,-0.00337701,-0.00304404,-0.00270817,-0.00237216,-0.00203903,-0.00171207,-0.00139484,-0.00109126,-0.000805596,-0.00054254,-0.00030724,-0.000105367,5.68281e-05,0.000172426,0.000233738,0.000232157,0.000157954,-0
-0,9.06649e-05,0.000263687,0.000501503,0.000789016,0.00111334,0.00146353,0.00183037,0.00220614,0.00258442,0.00295994,0.00332839,0.00368631,0.00403095,0.00436018,0.00467239,0.00496636,0.00524129,0.00549663,0.0057321,0.0059476,0.00614318,0.00631905,0.00647546,0.00661275,0.00673133,0.00683159,0.00691396,0.00697888,0.00702675,0.00705798,0.00707295,0.007072,0.00705546,0.00702362,0.00697673,0.00691503,0.0068387,0.00674793,0.00664285,0.00652361,0.0063903,0.00624303,0.00608188,0.00590696,0.00571835,0.00551615,0.00530047,0.00507146,0.00482927,0.00457407,0.0043061,0.00402561,0.0037329,0.00342832,0.00311227,0.0027852,0.00244761,0.00210009,0.00174326,0.00137781,0.00100451,0.000624181,0.000237711,-0.000153945,-0.000549771,-0.000948687,-0.00134956,-0.00175118,-0.00215233,-0.00255169,-0.00294793,-0.00333969,-0.00372555,-0.00410408,-0.00447383,-0.00483335,-0.00518117,-0.00551583,-0.00583589,-0.00613993,-0.00642657,-0.00669446,-0.0069423,-0.00716886,-0.00737297,-0.00755355,-0.0077096,-0.00784021,-0.00794459,-0.00802204,-0.008072,-0.00809402,-0.00808781,-0.00805318,-0.00799011,-0.00789872,-0.0077793,-0.00763226,-0.0074582,-0.00725786,-0.00703218,-0.00678222,-0.00650923,-0.00621465,-0.00590005,-0.00556722,-0.00521811,-0.00485484,-0.00447976,-0.0040954,-0.00370451,-0.00331005,-0.00291525,-0.00252359,-0.00213885,-0.00176511,-0.00140681,-0.00106878,-0.000756292,-0.000475086,-0.000231446,-3.2264e-05,0.000114874,0.000201584,0.000218537,0.00015528,-0
-0,0.000149533,0.000382403,0.000681006,0.00103005,0.00141635,0.00182862,0.00225725,0.00269415,0.00313253,0.00356676,0.00399224,0.00440521,0.00480269,0.00518234,0.00554235,0.0058814,0.00619855,0.00649318,0.00676496,0.00701375,0.00723961,0.0074427,0.00762333,0.00778185,0.00791868,0.00803427,0.00812909,0.0082036,0.00825827,0.00829355,0.00830984,0.00830755,0.00828702,0.00824859,0.00819255,0.00811915,0.00802862,0.00792116,0.00779694,0.0076561,0.00749878,0.0073251,0.00713517,0.0069291,0.006707,0.00646901,0.00621527,0.00594593,0.00566119,0.00536129,0.00504648,0.00471707,0.00437343,0.00401597,0.00364517,0.00326156,0.00286574,0.00245839,0.00204024,0.00161212,0.00117491,0.00072958,0.000277165,-0.000181221,-0.000644392,-0.00111109,-0.00158,-0.00204972,-0.00251882,-0.00298579,-0.00344907,-0.00390708,-0.00435819,-0.00480073,-0.00523303,-0.0056534,-0.00606014,-0.00645156,-0.006826,-0.00718182,-0.0075174,-0.00783119,-0.0081217,-0.00838748,-0.00862719,-0.00883958,-0.00902348,-0.00917784,-0.00930175,-0.00939439,-0.00945512,-0.00948341,-0.00947891,-0.00944141,-0.00937089,-0.00926749,-0.00913151,-0.00896346,-0.00876402,-0.00853405,-0.00827462,-0.00798697,-0.00767256,-0.00733302,-0.00697022,-0.00658618,-0.00618317,-0.00576366,-0.00533033,-0.00488611,-0.00443414,-0.00397783,-0.00352086,-0.00306718,-0.00262107,-0.00218713,-0.00177035,-0.0013761,-0.00101021,-0.000679017,-0.000389388,-0.000148823,3.44785e-05,0.000151514,0.000192346,0.000145944,-0
-0,0.000218457,0.00052003,0.000887191,0.00130458,0.00175885,0.00223846,0.00273355,0.00323571,0.00373788,0.00423416,0.00471965,0.00519039,0.00564316,0.00607546,0.00648533,0.00687133,0.00723241,0.00756791,0.00787741,0.00816076,0.00841801,0.00864933,0.00885502,0.00903547,0.00919114,0.00932249,0.00943005,0.00951432,0.0095758,0.00961499,0.00963233,0.00962827,0.00960319,0.00955746,0.0094914,0.0094053,0.00929941,0.00917396,0.00902913,0.00886511,0.00868204,0.00848006,0.00825931,0.00801993,0.00776204,0.00748581,0.00719141,0.00687904,0.00654892,0.00620133,0.00583659,0.00545505,0.00505716,0.00464339,0.0042143,0.00377051,0.00331272,0.00284172,0.00235836,0.00186359,0.00135843,0.000844,0.000321489,-0.00020782,-0.000742565,-0.0012813,-0.00182252,-0.00236462,-0.00290594,-0.00344477,-0.00397933,-0.00450779,-0.0050283,-0.00553895,-0.00603782,-0.00652299,-0.0069925,-0.00744445,-0.00787691,-0.00828801,-0.00867591,-0.00903883,-0.00937506,-0.00968297,-0.009961,-0.0102077,-0.0104218,-0.010602,-0.0107473,-0.0108569,-0.0109298,-0.0109655,-0.0109637,-0.0109241,-0.0108466,-0.0107314,-0.0105788,-0.0103894,-0.0101641,-0.00990366,-0.00960944,-0.00928284,-0.00892549,-0.00853929,-0.00812632,-0.00768893,-0.00722969,-0.0067514,-0.00625713,-0.00575018,-0.00523412,-0.00471281,-0.00419038,-0.00367127,-0.00316026,-0.00266248,-0.00218343,-0.00172906,-0.00130575,-0.000920387,-0.000580415,-0.000293902,-6.96116e-05,8.29062e-05,0.000153199,0.000129783,-0
-0,0.00029731,0.000676406,0.00111993,0.00161254,0.00214083,0.00269314,0.00325939,0.003831,0.00440066,0.00496227,0.00551072,0.00604187,0.00655232,0.00703942,0.00750109,0.00793578,0.00834238,0.00872014,0.00906864,0.00938769,0.00967732,0.00993772,0.0101692,0.0103722,0.0105472,0.0106946,0.0108151,0.0109092,0.0109775,0.0110204,0.0110384,0.0110322,0.0110019,0.0109482,0.0108712,0.0107714,0.0106491,0.0105043,0.0103375,0.0101488,0.00993825,0.00970616,0.00945265,0.00917786,0.00888197,0.00856516,0.00822763,0.00786962,0.0074914,0.00709329,0.00667566,0.00623893,0.0057836,0.00531023,0.00481947,0.00431202,0.00378869,0.00325038,0.00269807,0.00213284,0.00155585,0.000968376,0.000371774,-0.000232499,-0.000842896,-0.00145778,-0.00207543,-0.00269404,-0.00331174,-0.00392657,-0.00453653,-0.00513955,-0.00573351,-0.00631628,-0.00688569,-0.00743954,-0.00797565,-0.00849183,-0.00898593,-0.00945581,-0.00989942,-0.0103147,-0.0106998,-0.0110527,-0.0113719,-0.0116555,-0.0119022,-0.0121105,-0.0122792,-0.0124074,-0.0124941,-0.0125387,-0.0125406,-0.0124997,-0.0124158,-0.0122892,-0.0121202,-0.0119094,-0.0116577,-0.0113663,-0.0110364,-0.0106698,-0.0102682,-0.00983373,-0.00936884,-0.00887611,-0.00835844,-0.00781899,-0.0072612,-0.00668878,-0.00610572,-0.00551633,-0.0049252,-0.00433729,-0.00375786,-0.00319257,-0.00264746,-0.00212901,-0.00164415,-0.00120032,-0.000805504,-0.000468312,-0.000198022,-4.66889e-06,0.000100858,0.000106715,-0
-0,0.000385938,0.000851307,0.00137897,0.00195372,0.00256214,0.00319252,0.00383471,0.00447996,0.00512084,0.00575107,0.00636541,0.00695956,0.00753001,0.00807398,0.0085893,0.00907434,0.00952792,0.00994927,0.0103379,0.0106937,0.0110166,0.0113068,0.0115647,0.0117907,0.0119854,0.0121492,0.0122828,0.0123867,0.0124616,0.012508,0.0125264,0.0125174,0.0124815,0.012419,0.0123303,0.0122158,0.0120758,0.0119106,0.0117204,0.0115054,0.0112659,0.0110019,0.0107138,0.0104016,0.0100656,0.00970596,0.00932294,0.00891681,0.00848789,0.00803655,0.0075632,0.00706834,0.00655254,0.00601644,0.00546075,0.00488631,0.00429403,0.0036849,0.00306005,0.00242069,0.00176814,0.00110383,0.000429283,-0.000253856,-0.00094385,-0.00163886,-0.00233695,-0.00303611,-0.00373422,-0.00442909,-0.00511848,-0.00580007,-0.00647149,-0.00713034,-0.00777419,-0.00840059,-0.00900707,-0.0095912,-0.0101506,-0.0106828,-0.0111855,-0.0116564,-0.0120935,-0.0124945,-0.0128576,-0.0131808,-0.0134626,-0.0137013,-0.0138956,-0.0140444,-0.0141466,-0.0142014,-0.0142084,-0.0141673,-0.0140778,-0.0139403,-0.0137551,-0.0135229,-0.0132448,-0.0129219,-0.0125557,-0.0121481,-0.011701,-0.011217,-0.0106985,-0.0101486,-0.00957042,-0.00896753,-0.00834375,-0.00770318,-0.00705026,-0.00638975,-0.00572673,-0.00506663,-0.00441524,-0.00377873,-0.00316369,-0.00257711,-0.00202647,-0.00151975,-0.00106545,-0.000672682,-0.000351209,-0.0001115,3.51826e-05,7.67066e-05,-0
-0,0.000484172,0.00104447,0.00166403,0.00232781,0.00302249,0.00373637,0.00445928,0.0051824,0.00589823,0.00660039,0.00728354,0.00794326,0.00857599,0.00917884,0.00974959,0.0102865,0.0107885,0.0112547,0.0116845,0.0120779,0.0124349,0.0127556,0.0130404,0.0132899,0.0135045,0.0136849,0.0138316,0.0139454,0.0140267,0.0140763,0.0140948,0.0140826,0.0140403,0.0139683,0.013867,0.0137369,0.0135782,0.0133913,0.0131764,0.0129338,0.0126636,0.0123662,0.0120416,0.0116901,0.011312,0.0109074,0.0104766,0.01002,0.0095379,0.00903073,0.00849898,0.0079432,0.00736402,0.00676218,0.00613848,0.00549386,0.00482933,0.00414602,0.00344519,0.00272818,0.00199647,0.00125166,0.000495448,-0.000270333,-0.00104375,-0.00182276,-0.0026052,-0.00338883,-0.0041713,-0.00495018,-0.00572297,-0.00648709,-0.00723991,-0.00797877,-0.00870095,-0.00940373,-0.0100844,-0.0107402,-0.0113685,-0.0119665,-0.0125318,-0.0130618,-0.0135541,-0.0140063,-0.0144162,-0.0147819,-0.0151014,-0.0153729,-0.0155951,-0.0157665,-0.015886,-0.0159528,-0.0159663,-0.015926,-0.015832,-0.0156843,-0.0154834,-0.0152301,-0.0149254,-0.0145708,-0.0141677,-0.0137183,-0.0132248,-0.0126899,-0.0121163,-0.0115074,-0.0108668,-0.0101983,-0.00950609,-0.00879476,-0.00806916,-0.0073345,-0.00659637,-0.00586068,-0.00513374,-0.00442224,-0.00373329,-0.00307444,-0.00245367,-0.00187949,-0.0013609,-0.000907512,-0.000529514,-0.000237779,-4.38979e-05,3.97591e-05,-0
-0,0.000591834,0.0012556,0.00197473,0.00273442,0.00352148,0.00432431,0.00513275,0.00593801,0.00673254,0.00750992,0.00826478,0.00899265,0.0096899,0.0103536,0.0109815,0.0115719,0.0121236,0.0126357,0.0131078,0.0135396,0.0139313,0.0142831,0.0145954,0.0148686,0.0151035,0.0153005,0.0154604,0.0155839,0.0156715,0.0157241,0.0157421,0.0157262,0.0156769,0.0155947,0.01548,0.0153333,0.0151549,0.0149452,0.0147043,0.0144327,0.0141305,0.0137979,0.0134352,0.0130426,0.0126204,0.0121688,0.0116881,0.0111788,0.0106412,0.0100757,0.00948302,0.00886364,0.00821833,0.00754788,0.00685321,0.00613535,0.00539544,0.00463472,0.00385458,0.00305653,0.0022422,0.00141335,0.000571868,-0.000280222,-0.00114078,-0.00200755,-0.00287816,-0.00375011,-0.00462082,-0.00548761,-0.00634772,-0.0071983,-0.00803644,-0.00885921,-0.00966361,-0.0104466,-0.0112053,-0.0119365,-0.0126374,-0.013305,-0.0139364,-0.0145288,-0.0150796,-0.0155862,-0.0160461,-0.0164571,-0.0168171,-0.0171241,-0.0173765,-0.0175727,-0.0177116,-0.0177922,-0.0178137,-0.0177758,-0.0176782,-0.0175212,-0.0173053,-0.0170312,-0.0167001,-0.0163136,-0.0158733,-0.0153815,-0.0148406,-0.0142536,-0.0136235,-0.012954,-0.012249,-0.0115127,-0.0107497,-0.00996502,-0.00916391,-0.00835208,-0.00753558,-0.00672085,-0.00591469,-0.00512434,-0.00435742,-0.00362201,-0.00292662,-0.00228026,-0.00169244,-0.00117321,-0.000733199,-0.000383636,-0.000136413,-4.1065e-06,-0
-0,0.000708744,0.00148439,0.0023107,0.00317313,0.00405868,0.00495589,0.00585469,0.00674635,0.00762334,0.00847927,0.00930874,0.0101073,0.0108713,0.0115978,0.0122846,0.0129299,0.0135326,0.0140917,0.0146069,0.0150781,0.0155052,0.0158886,0.0162286,0.016526,0.0167812,0.016995,0.017168,0.0173011,0.0173948,0.01745,0.0174672,0.0174471,0.0173902,0.0172971,0.0171682,0.0170041,0.0168049,0.0165712,0.0163032,0.0160013,0.0156655,0.0152963,0.0148939,0.0144585,0.0139904,0.0134899,0.0129573,0.0123931,0.0117978,0.0111717,0.0105156,0.00983006,0.00911596,0.00837418,0.00760572,0.0068117,0.00599339,0.00515216,0.00428953,0.00340717,0.00250686,0.00159055,0.000660304,-0.000281659,-0.00123299,-0.00219121,-0.00315372,-0.00411778,-0.00508056,-0.00603912,-0.00699042,-0.00793135,-0.00885873,-0.00976933,-0.0106598,-0.011527,-0.0123675,-0.013178,-0.0139552,-0.014696,-0.0153971,-0.0160555,-0.0166683,-0.0172326,-0.0177457,-0.0182051,-0.0186085,-0.0189537,-0.0192389,-0.0194624,-0.0196229,-0.0197192,-0.0197505,-0.0197164,-0.0196166,-0.0194513,-0.0192211,-0.0189268,-0.0185697,-0.0181512,-0.0176734,-0.0171386,-0.0165496,-0.0159094,-0.0152216,-0.0144899,-0.0137186,-0.0129124,-0.0120763,-0.0112156,-0.0103361,-0.00944406,-0.00854589,-0.00764858,-0.00675946,-0.00588628,-0.0050372,-0.00422081,-0.00344617,-0.00272276,-0.00206059,-0.00147016,-0.000962485,-0.000549169,-0.000242372,-5.48612e-05,-0
-0,0.000834719,0.00173052,0.00267152,0.00364346,0.00463359,0.0056306,0.00662458,0.0076069,0.00857013,0.00950792,0.0104149,0.0112867,0.0121197,0.012911,0.0136583,0.01436,0.0150148,0.0156221,0.0161813,0.0166925,0.0171556,0.017571,0.0179393,0.018261,0.0185368,0.0187673,0.0189535,0.019096,0.0191956,0.019253,0.019269,0.0192442,0.0191791,0.0190744,0.0189306,0.0187481,0.0185273,0.0182686,0.0179723,0.0176388,0.0172682,0.016861,0.0164173,0.0159374,0.0154217,0.0148705,0.0142841,0.0136631,0.0130078,0.0123189,0.0115971,0.010843,0.0100577,0.00924194,0.00839698,0.00752402,0.00662442,0.0056997,0.00475153,0.0037817,0.00279218,0.00178509,0.000762677,-0.000272632,-0.00131828,-0.00237156,-0.00342964,-0.00448954,-0.00554817,-0.00660232,-0.00764869,-0.00868387,-0.0097044,-0.0107067,-0.0116873,-0.0126425,-0.0135687,-0.0144624,-0.0153198,-0.0161376,-0.0169122,-0.0176403,-0.0183186,-0.018944,-0.0195137,-0.0200247,-0.0204745,-0.0208609,-0.0211817,-0.021435,-0.0216194,-0.0217336,-0.0217767,-0.0217481,-0.0216476,-0.0214753,-0.0212318,-0.020918,-0.0205351,-0.0200849,-0.0195694,-0.0189913,-0.0183534,-0.0176591,-0.0169122,-0.0161167,-0.0152774,-0.0143993,-0.0134876,-0.0125483,-0.0115876,-0.0106121,-0.00962891,-0.0086454,-0.00766945,-0.00670934,-0.00577377,-0.00487184,-0.00401314,-0.00320765,-0.00246585,-0.00179869,-0.00121758,-0.000734467,-0.000361782,-0.000112477,-0
-0,0.00096958,0.00199368,0.00305678,0.00414493,0.00524565,0.00634786,0.00744184,0.0085191,0.00957233,0.0105953,0.0115827,0.0125303,0.0134345,0.0142924,0.015102,0.0158614,0.0165697,0.0172261,0.0178302,0.0183821,0.0188818,0.0193298,0.0197266,0.0200728,0.0203693,0.0206167,0.0208159,0.0209677,0.0210729,0.0211323,0.0211466,0.0211166,0.0210428,0.0209259,0.0207664,0.0205647,0.0203213,0.0200367,0.019711,0.0193448,0.0189381,0.0184915,0.0180051,0.0174793,0.0169144,0.0163107,0.0156687,0.0149889,0.0142718,0.013518,0.0127282,0.0119034,0.0110443,0.0101522,0.00922818,0.0082736,0.00728996,0.0062789,0.00524223,0.0041819,0.00310004,0.00199894,0.000881065,-0.00025098,-0.00139441,-0.00254631,-0.00370357,-0.004863,-0.00602122,-0.00717477,-0.00832005,-0.00945339,-0.010571,-0.0116691,-0.0127437,-0.0137909,-0.0148069,-0.0157876,-0.0167292,-0.0176279,-0.0184798,-0.0192813,-0.0200289,-0.0207192,-0.0213488,-0.0219148,-0.0224144,-0.022845,-0.0232043,-0.0234902,-0.0237011,-0.0238356,-0.0238925,-0.0238714,-0.0237718,-0.0235939,-0.0233382,-0.0230057,-0.0225977,-0.022116,-0.021563,-0.0209412,-0.0202538,-0.0195045,-0.0186972,-0.0178366,-0.0169274,-0.0159752,-0.0149856,-0.0139651,-0.0129202,-0.0118581,-0.0107864,-0.00971292,-0.00864615,-0.00759488,-0.00656832,-0.00557613,-0.0046284,-0.00373562,-0.00290875,-0.00215917,-0.00149871,-0.000939634,-0.000494661,-0.000176934,-0