-0,-0,-0,-0,-0,-0,-0,-0,-0,-0,-0,-0,-0,-0,-0,-0,-0,-0,-0,-0,-0,-0,-0,-0,-0,-0,-0,-0,-0,-0,-0,-0,-0,-0,-0,-0,-0,-0,-0,-0,-0,-0,-0,-0,-0,-0,-0,-0,-0,-0,-0,-0,-0,-0,-0,-0,-0,-0,-0,-0,-0,-0,-0,-0,-0,-0,-0,-0,-0,-0,-0,-0,-0,-0,-0,-0,-0,-0,-0,-0,-0,-0,-0,-0,-0,-0,-0,-0,-0,-0,-0,-0,-0,-0,-0,-0,-0,-0,-0,-0,-0,-0,-0,-0,-0,-0,-0,-0,-0,-0,-0,-0,-0,-0,-0,-0,-0,-0,-0,-0,-0,-0,-0,-0,-0,-0,-0,-0
-0,2.16656e-08,7.0342e-08,1.22043e-07,1.60388e-07,1.75897e-07,1.63572e-07,1.21138e-07,4.79623e-08,-5.55774e-08,-1.8852e-07,-3.4947e-07,-5.36856e-07,-7.48951e-07,-9.83983e-07,-1.24015e-06,-1.51567e-06,-1.80879e-06,-2.11782e-06,-2.44111e-06,-2.7771e-06,-3.12426e-06,-3.48121e-06,-3.84648e-06,-4.2189e-06,-4.59712e-06,-4.98008e-06,-5.36658e-06,-5.75568e-06,-6.14628e-06,-6.53755e-06,-6.9285e-06,-7.31838e-06,-7.7063e-06,-8.09158e-06,-8.47339e-06,-8.85118e-06,-9.22404e-06,-9.59161e-06,-9.95297e-06,-1.03078e-05,-1.06552e-05,-1.09949e-05,-1.1326e-05,-1.16483e-05,-1.19609e-05,-1.22636e-05,-1.25555e-05,-1.28364e-05,-1.31056e-05,-1.33626e-05,-1.36068e-05,-1.38379e-05,-1.40551e-05,-1.42583e-05,-1.44465e-05,-1.46197e-05,-1.47771e-05,-1.49184e-05,-1.5043e-05,-1.51506e-05,-1.52407e-05,-1.5313e-05,-1.53669e-05,-1.54024e-05,-1.54188e-05,-1.54161e-05,-1.53938e-05,-1.53519e-05,-1.52901e-05,-1.52083e-05,-1.51064e-05,-1.49843e-05,-1.4842e-05,-1.46798e-05,-1.44975e-05,-1.42955e-05,-1.4074e-05,-1.38333e-05,-1.35737e-05,-1.32958e-05,-1.29999e-05,-1.26869e-05,-1.23572e-05,-1.20117e-05,-1.16511e-05,-1.12764e-05,-1.08884e-05,-1.04883e-05,-1.0077e-05,-9.65574e-06,-9.22577e-06,-8.7884e-06,-8.3449e-06,-7.89673e-06,-7.4453e-06,-6.99213e-06,-6.53874e-06,-6.08673e-06,-5.63768e-06,-5.19329e-06,-4.75502e-06,-4.32491e-06,-3.90424e-06,-3.49503e-06,-3.09869e-06,-2.71713e-06,-2.3518e-06,-2.00451e-06,-1.67672e-06,-1.37011e-06,-1.08607e-06,-8.26149e-07,-5.9162e-07,-3.83814e-07,-2.03803e-07,-5.2605e-08,6.90652e-08,1.60702e-07,2.22249e-07,2.54143e-07,2.57642e-07,2.35131e-07,1.90777e-07,1.31465e-07,6.82089e-08,1.76255e-08,-0
-0,7.03707e-08,2.02447e-07,3.30228e-07,4.07328e-07,4.0415e-07,3.03287e-07,9.56394e-08,-2.22341e-07,-6.50522e-07,-1.18636e-06,-1.82569e-06,-2.56331e-06,-3.39341e-06,-4.30978e-06,-5.30605e-06,-6.37579e-06,-7.51263e-06,-8.71031e-06,-9.96276e-06,-1.12641e-05,-1.26086e-05,-1.39909e-05,-1.54059e-05,-1.68484e-05,-1.83139e-05,-1.97977e-05,-2.12958e-05,-2.28041e-05,-2.43186e-05,-2.58358e-05,-2.73521e-05,-2.88644e-05,-3.03693e-05,-3.1864e-05,-3.33456e-05,-3.48112e-05,-3.62583e-05,-3.76842e-05,-3.90865e-05,-4.04628e-05,-4.18108e-05,-4.31281e-05,-4.44126e-05,-4.56619e-05,-4.68741e-05,-4.80469e-05,-4.91783e-05,-5.02661e-05,-5.13084e-05,-5.2303e-05,-5.3248e-05,-5.41415e-05,-5.49814e-05,-5.57657e-05,-5.64927e-05,-5.71604e-05,-5.77671e-05,-5.83108e-05,-5.879e-05,-5.92029e-05,-5.9548e-05,-5.98238e-05,-6.00287e-05,-6.01616e-05,-6.02212e-05,-6.02064e-05,-6.01162e-05,-5.99499e-05,-5.97068e-05,-5.93864e-05,-5.89883e-05,-5.85126e-05,-5.79592e-05,-5.73284e-05,-5.66209e-05,-5.58371e-05,-5.49784e-05,-5.40457e-05,-5.30408e-05,-5.19652e-05,-5.0821e-05,-4.96106e-05,-4.83364e-05,-4.70014e-05,-4.56086e-05,-4.41615e-05,-4.26638e-05,-4.11192e-05,-3.95322e-05,-3.7907e-05,-3.62484e-05,-3.45613e-05,-3.28509e-05,-3.11225e-05,-2.93816e-05,-2.7634e-05,-2.58855e-05,-2.41422e-05,-2.24101e-05,-2.06957e-05,-1.90049e-05,-1.73444e-05,-1.57205e-05,-1.41396e-05,-1.26081e-05,-1.11322e-05,-9.71821e-06,-8.37231e-06,-7.1005e-06,-5.90852e-06,-4.80199e-06,-3.78616e-06,-2.86597e-06,-2.04589e-06,-1.32986e-06,-7.21077e-07,-2.21882e-07,1.66588e-07,4.44751e-07,6.15126e-07,6.83146e-07,6.58256e-07,5.5562e-07,3.98308e-07,2.20192e-07,6.81289e-08,-0
-0,1.22226e-07,3.30613e-07,5.07905e-07,5.71642e-07,4.67059e-07,1.60143e-07,-3.68128e-07,-1.12618e-06,-2.11502e-06,-3.33055e-06,-4.76512e-06,-6.40874e-06,-8.24978e-06,-1.02757e-05,-1.24735e-05,-1.48298e-05,-1.73312e-05,-1.99647e-05,-2.27171e-05,-2.55762e-05,-2.85295e-05,-3.15657e-05,-3.46733e-05,-3.78417e-05,-4.10605e-05,-4.43202e-05,-4.76113e-05,-5.0925e-05,-5.42528e-05,-5.75868e-05,-6.09192e-05,-6.42429e-05,-6.75507e-05,-7.08362e-05,-7.40928e-05,-7.73145e-05,-8.04953e-05,-8.36298e-05,-8.6712e-05,-8.97371e-05,-9.26995e-05,-9.55944e-05,-9.84166e-05,-0.000101161,-0.000103824,-0.0001064,-0.000108884,-0.000111272,-0.000113559,-0.000115741,-0.000117814,-0.000119773,-0.000121614,-0.000123332,-0.000124924,-0.000126385,-0.000127712,-0.0001289,-0.000129946,-0.000130846,-0.000131597,-0.000132196,-0.000132639,-0.000132924,-0.000133048,-0.000133008,-0.000132804,-0.000132432,-0.000131892,-0.000131183,-0.000130304,-0.000129255,-0.000128036,-0.000126648,-0.000125092,-0.00012337,-0.000121483,-0.000119435,-0.00011723,-0.00011487,-0.000112361,-0.000109707,-0.000106914,-0.000103989,-0.000100937,-9.77675e-05,-9.44872e-05,-9.11053e-05,-8.76306e-05,-8.40729e-05,-8.04425e-05,-7.675e-05,-7.30065e-05,-6.92239e-05,-6.5414e-05,-6.15893e-05,-5.77626e-05,-5.39469e-05,-5.01554e-05,-4.64018e-05,-4.26996e-05,-3.90627e-05,-3.55047e-05,-3.20398e-05,-2.86813e-05,-2.54432e-05,-2.23385e-05,-1.93808e-05,-1.65826e-05,-1.39563e-05,-1.15138e-05,-9.26607e-06,-7.2234e-06,-5.39505e-06,-3.78888e-06,-2.41124e-06,-1.26636e-06,-3.55892e-07,3.21944e-07,7.73368e-07,1.01053e-06,1.05353e-06,9.33001e-07,6.93685e-07,3.98285e-07,1.3126e-07,-0
-0,1.60978e-07,4.08678e-07,5.72921e-07,5.33416e-07,2.08461e-07,-4.54328e-07,-1.48547e-06,-2.89944e-06,-4.69904e-06,-6.87875e-06,-9.42707e-06,-1.23284e-05,-1.55642e-05,-1.91142e-05,-2.2957e-05,-2.70705e-05,-3.14327e-05,-3.60213e-05,-4.08147e-05,-4.57917e-05,-5.09317e-05,-5.62147e-05,-6.16216e-05,-6.7134e-05,-7.27342e-05,-7.84054e-05,-8.41315e-05,-8.98972e-05,-9.56878e-05,-0.000101489,-0.000107289,-0.000113073,-0.00011883,-0.000124547,-0.000130215,-0.000135823,-0.000141359,-0.000146813,-0.000152178,-0.000157442,-0.000162596,-0.000167633,-0.000172543,-0.000177317,-0.000181948,-0.000186427,-0.000190746,-0.000194897,-0.000198872,-0.000202664,-0.000206264,-0.000209665,-0.00021286,-0.000215842,-0.000218602,-0.000221135,-0.000223433,-0.00022549,-0.0002273,-0.000228855,-0.000230151,-0.000231181,-0.000231941,-0.000232426,-0.000232631,-0.000232552,-0.000232186,-0.000231531,-0.000230583,-0.000229342,-0.000227806,-0.000225975,-0.000223849,-0.000221431,-0.000218722,-0.000215724,-0.000212443,-0.000208883,-0.00020505,-0.00020095,-0.000196591,-0.000191983,-0.000187134,-0.000182056,-0.000176761,-0.000171261,-0.000165571,-0.000159704,-0.000153678,-0.000147508,-0.000141213,-0.00013481,-0.000128319,-0.00012176,-0.000115154,-0.000108523,-0.000101887,-9.52698e-05,-8.8694e-05,-8.21828e-05,-7.57595e-05,-6.94479e-05,-6.32715e-05,-5.72541e-05,-5.14191e-05,-4.57898e-05,-4.0389e-05,-3.52391e-05,-3.03617e-05,-2.57777e-05,-2.1507e-05,-1.75681e-05,-1.39781e-05,-1.07519e-05,-7.90248e-06,-5.43973e-06,-3.36998e-06,-1.69508e-06,-4.1109e-07,4.93209e-07,1.0386e-06,1.25805e-06,1.2005e-06,9.35064e-07,5.56508e-07,1.90614e-07,-0
-0,1.77133e-07,4.06982e-07,4.7019e-07,2.10211e-07,-4.81047e-07,-1.67434e-06,-3.41197e-06,-5.71476e-06,-8.58753e-06,-1.20233e-05,-1.60063e-05,-2.05148e-05,-2.55226e-05,-3.10004e-05,-3.69173e-05,-4.32411e-05,-4.99393e-05,-5.69792e-05,-6.43288e-05,-7.19562e-05,-7.98309e-05,-8.79228e-05,-9.62031e-05,-0.000104644,-0.000113219,-0.000121903,-0.00013067,-0.000139498,-0.000148365,-0.000157248,-0.000166128,-0.000174985,-0.000183801,-0.000192557,-0.000201236,-0.000209822,-0.0002183,-0.000226652,-0.000234865,-0.000242925,-0.000250817,-0.000258527,-0.000266042,-0.000273349,-0.000280435,-0.000287288,-0.000293895,-0.000300244,-0.000306322,-0.000312119,-0.000317621,-0.000322818,-0.000327698,-0.000332251,-0.000336464,-0.000340328,-0.000343832,-0.000346967,-0.000349722,-0.000352087,-0.000354055,-0.000355617,-0.000356765,-0.000357492,-0.00035779,-0.000357656,-0.000357082,-0.000356066,-0.000354604,-0.000352693,-0.000350332,-0.000347521,-0.000344262,-0.000340555,-0.000336405,-0.000331817,-0.000326795,-0.000321349,-0.000315486,-0.000309218,-0.000302556,-0.000295514,-0.000288106,-0.000280349,-0.000272262,-0.000263864,-0.000255175,-0.000246219,-0.00023702,-0.000227603,-0.000217994,-0.000208222,-0.000198316,-0.000188306,-0.000178224,-0.000168102,-0.000157973,-0.000147872,-0.000137833,-0.000127891,-0.00011808,-0.000108438,-9.89999e-05,-8.98009e-05,-8.08764e-05,-7.22617e-05,-6.39907e-05,-5.60973e-05,-4.86135e-05,-4.15706e-05,-3.49978e-05,-2.89227e-05,-2.33701e-05,-1.8362e-05,-1.39167e-05,-1.00483e-05,-6.76513e-06,-4.0691e-06,-1.95355e-06,-4.01281e-07,6.18135e-07,1.15197e-06,1.26858e-06,1.06284e-06,6.62468e-07,2.35619e-07,-0
-0,1.65607e-07,3.07668e-07,1.64658e-07,-4.5235e-07,-1.67546e-06,-3.59244e-06,-6.25658e-06,-9.69463e-06,-1.3913e-05,-1.8903e-05,-2.46443e-05,-3.11082e-05,-3.82601e-05,-4.60611e-05,-5.44694e-05,-6.34417e-05,-7.29337e-05,-8.29011e-05,-9.32996e-05,-0.000104086,-0.000115217,-0.000126653,-0.000138352,-0.000150277,-0.000162389,-0.000174654,-0.000187038,-0.000199506,-0.000212028,-0.000224575,-0.000237116,-0.000249625,-0.000262076,-0.000274442,-0.0002867,-0.000298826,-0.000310797,-0.000322593,-0.000334191,-0.000345571,-0.000356713,-0.000367598,-0.000378207,-0.000388521,-0.000398522,-0.000408192,-0.000417513,-0.000426469,-0.000435041,-0.000443214,-0.000450971,-0.000458296,-0.000465171,-0.000471583,-0.000477515,-0.000482954,-0.000487883,-0.000492289,-0.000496158,-0.000499478,-0.000502237,-0.000504421,-0.000506022,-0.000507028,-0.000507431,-0.000507222,-0.000506395,-0.000504944,-0.000502864,-0.000500153,-0.000496808,-0.00049283,-0.00048822,-0.000482982,-0.000477119,-0.00047064,-0.000463553,-0.000455868,-0.000447599,-0.00043876,-0.000429367,-0.000419441,-0.000409001,-0.000398072,-0.000386679,-0.000374848,-0.000362611,-0.000349998,-0.000337043,-0.000323782,-0.000310252,-0.000296493,-0.000282545,-0.000268451,-0.000254255,-0.000240002,-0.000225738,-0.000211512,-0.00019737,-0.000183363,-0.000169539,-0.000155948,-0.00014264,-0.000129664,-0.00011707,-0.000104906,-9.32186e-05,-8.20552e-05,-7.146e-05,-6.14759e-05,-5.2143e-05,-4.34988e-05,-3.5577e-05,-2.84074e-05,-2.20143e-05,-1.64161e-05,-1.16237e-05,-7.6386e-06,-4.45118e-06,-2.03797e-06,-3.58231e-07,6.49877e-07,1.07455e-06,1.03618e-06,6.95009e-07,2.59906e-07,-0
-0,1.23939e-07,1.00834e-07,-3.64568e-07,-1.48809e-06,-3.42229e-06,-6.26945e-06,-1.00922e-05,-1.49221e-05,-2.07664e-05,-2.76137e-05,-3.54387e-05,-4.42052e-05,-5.38694e-05,-6.43817e-05,-7.56889e-05,-8.77354e-05,-0.000100464,-0.000113818,-0.000127739,-0.000142171,-0.000157059,-0.000172348,-0.000187987,-0.000203923,-0.000220108,-0.000236496,-0.00025304,-0.000269697,-0.000286426,-0.000303186,-0.000319939,-0.000336649,-0.00035328,-0.000369798,-0.000386171,-0.000402368,-0.000418357,-0.000434111,-0.0004496,-0.000464797,-0.000479675,-0.000494209,-0.000508372,-0.000522141,-0.00053549,-0.000548395,-0.000560833,-0.000572782,-0.000584217,-0.000595117,-0.000605459,-0.000615223,-0.000624386,-0.000632928,-0.000640829,-0.000648068,-0.000654627,-0.000660487,-0.00066563,-0.000670039,-0.000673697,-0.000676589,-0.000678701,-0.00068002,-0.000680535,-0.000680233,-0.000679108,-0.00067715,-0.000674355,-0.000670718,-0.000666238,-0.000660915,-0.00065475,-0.000647749,-0.000639918,-0.000631266,-0.000621806,-0.000611551,-0.000600519,-0.000588729,-0.000576204,-0.00056297,-0.000549053,-0.000534487,-0.000519303,-0.000503539,-0.000487234,-0.00047043,-0.000453172,-0.000435507,-0.000417484,-0.000399156,-0.000380577,-0.000361803,-0.000342892,-0.000323905,-0.000304901,-0.000285944,-0.000267098,-0.000248428,-0.000229997,-0.000211872,-0.000194119,-0.000176801,-0.000159985,-0.000143733,-0.000128108,-0.00011317,-9.89778e-05,-8.55868e-05,-7.30493e-05,-6.14137e-05,-5.07237e-05,-4.10172e-05,-3.23253e-05,-2.46711e-05,-1.80679e-05,-1.25173e-05,-8.00667e-06,-4.50606e-06,-1.9647e-06,-3.06234e-07,5.7659e-07,8.28804e-07,6.41109e-07,2.59981e-07,-0
-0,5.11698e-08,-2.18268e-07,-1.12855e-06,-2.91612e-06,-5.74948e-06,-9.74226e-06,-1.4964e-05,-2.14494e-05,-2.92052e-05,-3.82165e-05,-4.84519e-05,-5.98669e-05,-7.24076e-05,-8.60134e-05,-0.000100618,-0.000116154,-0.000132549,-0.000149733,-0.000167634,-0.000186181,-0.000205305,-0.000224937,-0.000245011,-0.000265464,-0.000286233,-0.000307258,-0.000328483,-0.00034985,-0.000371309,-0.000392806,-0.000414294,-0.000435725,-0.000457054,-0.000478238,-0.000499235,-0.000520005,-0.000540509,-0.000560709,-0.000580569,-0.000600053,-0.000619127,-0.000637758,-0.000655913,-0.000673559,-0.000690666,-0.000707202,-0.000723137,-0.000738443,-0.000753088,-0.000767046,-0.000780287,-0.000792784,-0.000804509,-0.000815437,-0.000825541,-0.000834796,-0.000843178,-0.000850662,-0.000857226,-0.000862849,-0.000867509,-0.000871188,-0.000873867,-0.00087553,-0.000876162,-0.000875749,-0.000874281,-0.000871749,-0.000868144,-0.000863463,-0.000857704,-0.000850866,-0.000842953,-0.000833971,-0.000823929,-0.000812838,-0.000800714,-0.000787575,-0.000773444,-0.000758346,-0.00074231,-0.000725367,-0.000707554,-0.000688912,-0.000669481,-0.000649311,-0.000628449,-0.000606951,-0.000584873,-0.000562275,-0.000539221,-0.000515776,-0.000492009,-0.000467992,-0.000443799,-0.000419505,-0.000395189,-0.00037093,-0.000346808,-0.000322906,-0.000299306,-0.000276091,-0.000253344,-0.000231146,-0.00020958,-0.000188726,-0.000168662,-0.000149464,-0.000131206,-0.000113956,-9.77818e-05,-8.27422e-05,-6.88914e-05,-5.62768e-05,-4.49364e-05,-3.48987e-05,-2.61797e-05,-1.87813e-05,-1.26881e-05,-7.86423e-06,-4.24924e-06,-1.75328e-06,-2.5103e-07,4.2507e-07,4.93575e-07,2.34058e-07,-0
-0,-5.27225e-08,-6.51053e-07,-2.13165e-06,-4.74507e-06,-8.67075e-06,-1.40299e-05,-2.08962e-05,-2.93051e-05,-3.92613e-05,-5.0745e-05,-6.37175e-05,-7.81252e-05,-9.39034e-05,-0.000110979,-0.000129273,-0.000148703,-0.000169184,-0.000190629,-0.000212951,-0.000236065,-0.000259886,-0.000284331,-0.000309319,-0.000334772,-0.000360613,-0.000386769,-0.000413169,-0.000439745,-0.000466431,-0.000493165,-0.000519884,-0.000546532,-0.000573053,-0.000599391,-0.000625496,-0.000651318,-0.000676807,-0.000701917,-0.000726603,-0.00075082,-0.000774527,-0.00079768,-0.000820239,-0.000842165,-0.000863418,-0.000883959,-0.000903752,-0.00092276,-0.000940945,-0.000958273,-0.000974709,-0.000990217,-0.00100477,-0.00101832,-0.00103085,-0.00104232,-0.00105271,-0.00106198,-0.0010701,-0.00107706,-0.00108282,-0.00108736,-0.00109065,-0.00109269,-0.00109344,-0.0010929,-0.00109105,-0.00108788,-0.00108337,-0.00107754,-0.00107036,-0.00106185,-0.00105201,-0.00104084,-0.00102835,-0.00101457,-0.000999507,-0.000983189,-0.000965641,-0.000946896,-0.000926988,-0.00090596,-0.000883854,-0.000860721,-0.000836612,-0.000811587,-0.000785707,-0.000759039,-0.000731652,-0.000703621,-0.000675023,-0.000645941,-0.000616459,-0.000586666,-0.000556652,-0.000526511,-0.000496338,-0.000466232,-0.000436292,-0.000406618,-0.000377312,-0.000348476,-0.00032021,-0.000292616,-0.000265795,-0.000239843,-0.000214857,-0.00019093,-0.000168151,-0.000146605,-0.000126372,-0.000107523,-9.01259e-05,-7.42357e-05,-5.98993e-05,-4.71503e-05,-3.60085e-05,-2.64763e-05,-1.85362e-05,-1.2147e-05,-7.2397e-06,-3.71189e-06,-1.42222e-06,-1.82811e-07,2.49107e-07,1.81576e-07,-0
-0,-1.87249e-07,-1.19682e-06,-3.37379e-06,-6.9763e-06,-1.21896e-05,-1.91383e-05,-2.78971e-05,-3.84997e-05,-5.09465e-05,-6.52113e-05,-8.12469e-05,-9.89892e-05,-0.000118362,-0.000139279,-0.000161646,-0.000185368,-0.000210342,-0.000236467,-0.00026364,-0.000291758,-0.000320723,-0.000350434,-0.000380795,-0.000411712,-0.000443094,-0.000474853,-0.000506903,-0.000539163,-0.000571554,-0.000604,-0.000636426,-0.000668764,-0.000700945,-0.000732903,-0.000764577,-0.000795905,-0.000826828,-0.00085729,-0.000887235,-0.00091661,-0.000945363,-0.000973443,-0.0010008,-0.00102739,-0.00105316,-0.00107806,-0.00110205,-0.00112509,-0.00114713,-0.00116812,-0.00118803,-0.00120682,-0.00122443,-0.00124085,-0.00125601,-0.00126989,-0.00128246,-0.00129366,-0.00130348,-0.00131188,-0.00131883,-0.0013243,-0.00132827,-0.0013307,-0.00133158,-0.0013309,-0.00132862,-0.00132475,-0.00131926,-0.00131216,-0.00130344,-0.0012931,-0.00128115,-0.0012676,-0.00125246,-0.00123574,-0.00121748,-0.0011977,-0.00117644,-0.00115372,-0.00112961,-0.00110413,-0.00107736,-0.00104934,-0.00102015,-0.000989842,-0.000958505,-0.000926214,-0.000893053,-0.000859113,-0.000824488,-0.000789275,-0.000753576,-0.000717498,-0.00068115,-0.000644645,-0.000608098,-0.000571625,-0.000535347,-0.000499384,-0.000463858,-0.000428891,-0.000394604,-0.000361118,-0.000328553,-0.000297026,-0.000266651,-0.00023754,-0.000209799,-0.000183528,-0.000158823,-0.000135769,-0.000114444,-9.49153e-05,-7.72374e-05,-6.14506e-05,-4.75783e-05,-3.56246e-05,-2.55706e-05,-1.73707e-05,-1.09484e-05,-6.19073e-06,-2.94207e-06,-9.97259e-07,-9.28134e-08,1.02613e-07,-0
-0,-3.51624e-07,-1.85353e-06,-4.85189e-06,-9.60618e-06,-1.63023e-05,-2.5064e-05,-3.59635e-05,-4.90299e-05,-6.42572e-05,-8.16109e-05,-0.000101034,-0.00012245,-0.00014577,-0.000170893,-0.000197713,-0.000226114,-0.000255981,-0.000287194,-0.000319634,-0.000353183,-0.000387722,-0.000423137,-0.000459314,-0.000496143,-0.000533517,-0.000571333,-0.000609489,-0.00064789,-0.000686443,-0.000725056,-0.000763644,-0.000802124,-0.000840414,-0.000878437,-0.000916119,-0.000953388,-0.000990173,-0.00102641,-0.00106203,-0.00109696,-0.00113116,-0.00116455,-0.00119708,-0.00122869,-0.00125933,-0.00128893,-0.00131745,-0.00134483,-0.00137101,-0.00139596,-0.00141961,-0.00144193,-0.00146285,-0.00148233,-0.00150034,-0.00151681,-0.00153172,-0.00154501,-0.00155665,-0.0015666,-0.00157483,-0.0015813,-0.00158597,-0.00158883,-0.00158985,-0.001589,-0.00158626,-0.00158163,-0.00157508,-0.00156662,-0.00155623,-0.00154393,-0.00152971,-0.00151358,-0.00149558,-0.00147571,-0.001454,-0.00143049,-0.00140522,-0.00137824,-0.00134959,-0.00131933,-0.00128753,-0.00125425,-0.00121958,-0.0011836,-0.00114638,-0.00110804,-0.00106866,-0.00102836,-0.000987244,-0.000945428,-0.000903033,-0.000860186,-0.000817013,-0.00077365,-0.00073023,-0.000686893,-0.000643779,-0.00060103,-0.000558789,-0.0005172,-0.000476406,-0.000436548,-0.000397768,-0.000360202,-0.000323986,-0.000289248,-0.000256113,-0.0002247,-0.000195118,-0.000167468,-0.00014184,-0.000118314,-9.69524e-05,-7.78026e-05,-6.08932e-05,-4.62301e-05,-3.37945e-05,-2.35374e-05,-1.53763e-05,-9.18944e-06,-4.80949e-06,-2.01671e-06,-5.30974e-07,-2.19368e-09,-0
-0,-5.44847e-07,-2.61835e-06,-6.56099e-06,-1.26277e-05,-2.1e-05,-3.17967e-05,-4.50836e-05,-6.08825e-05,-7.91786e-05,-9.99267e-05,-0.000123058,-0.000148483,-0.000176099,-0.00020579,-0.000237432,-0.000270895,-0.000306045,-0.000342745,-0.00038086,-0.000420251,-0.000460785,-0.000502328,-0.000544749,-0.000587923,-0.000631724,-0.000676033,-0.000720735,-0.000765716,-0.000810868,-0.000856087,-0.000901273,-0.000946327,-0.000991157,-0.00103567,-0.00107978,-0.00112341,-0.00116646,-0.00120887,-0.00125056,-0.00129145,-0.00133146,-0.00137053,-0.00140859,-0.00144558,-0.00148141,-0.00151604,-0.0015494,-0.00158142,-0.00161204,-0.00164121,-0.00166886,-0.00169494,-0.00171939,-0.00174216,-0.00176319,-0.00178244,-0.00179984,-0.00181536,-0.00182894,-0.00184055,-0.00185014,-0.00185767,-0.00186311,-0.00186642,-0.00186758,-0.00186655,-0.00186332,-0.00185787,-0.00185019,-0.00184027,-0.0018281,-0.00181369,-0.00179704,-0.00177818,-0.00175711,-0.00173387,-0.00170849,-0.001681,-0.00165146,-0.00161991,-0.00158642,-0.00155105,-0.00151388,-0.00147499,-0.00143447,-0.00139242,-0.00134893,-0.00130412,-0.00125811,-0.00121101,-0.00116296,-0.00111409,-0.00106454,-0.00101445,-0.000963983,-0.000913286,-0.000862515,-0.000811833,-0.000761402,-0.000711387,-0.000661954,-0.000613269,-0.000565497,-0.000518802,-0.000473348,-0.000429293,-0.000386792,-0.000345995,-0.000307046,-0.000270079,-0.000235223,-0.000202593,-0.000172293,-0.000144414,-0.000119029,-9.61939e-05,-7.5942e-05,-5.82832e-05,-4.31989e-05,-3.06389e-05,-2.05159e-05,-1.27015e-05,-7.01891e-06,-3.23717e-06,-1.06289e-06,-1.32029e-07,-0
-0,-7.65938e-07,-3.488e-06,-8.49501e-06,-1.60319e-05,-2.62709e-05,-3.93214e-05,-5.52398e-05,-7.40372e-05,-9.56872e-05,-0.000120132,-0.00014729,-0.000177056,-0.000209311,-0.000243924,-0.000280754,-0.000319653,-0.000360468,-0.000403046,-0.000447231,-0.000492868,-0.000539804,-0.000587887,-0.000636969,-0.000686905,-0.000737554,-0.00078878,-0.000840449,-0.000892433,-0.000944609,-0.000996855,-0.00104906,-0.0011011,-0.00115288,-0.0012043,-0.00125525,-0.00130563,-0.00135535,-0.00140432,-0.00145245,-0.00149965,-0.00154585,-0.00159096,-0.00163489,-0.00167758,-0.00171894,-0.00175891,-0.0017974,-0.00183434,-0.00186968,-0.00190332,-0.00193522,-0.0019653,-0.0019935,-0.00201975,-0.002044,-0.00206618,-0.00208624,-0.00210411,-0.00211976,-0.00213312,-0.00214416,-0.00215282,-0.00215906,-0.00216285,-0.00216416,-0.00216295,-0.0021592,-0.00215288,-0.002144,-0.00213253,-0.00211847,-0.00210183,-0.00208261,-0.00206084,-0.00203653,-0.00200971,-0.00198042,-0.00194872,-0.00191464,-0.00187825,-0.00183963,-0.00179884,-0.00175598,-0.00171114,-0.00166441,-0.00161592,-0.00156578,-0.00151411,-0.00146105,-0.00140674,-0.00135133,-0.00129496,-0.00123782,-0.00118005,-0.00112183,-0.00106334,-0.00100475,-0.000946261,-0.000888048,-0.000830301,-0.000773211,-0.000716968,-0.00066176,-0.000607776,-0.0005552,-0.000504215,-0.000454997,-0.000407717,-0.000362539,-0.000319616,-0.000279094,-0.000241105,-0.000205767,-0.000173184,-0.00014344,-0.0001166,-9.27032e-05,-7.17642e-05,-5.37666e-05,-3.86597e-05,-2.6354e-05,-1.67159e-05,-9.56197e-06,-4.65277e-06,-1.68543e-06,-2.85794e-07,-0
-0,-1.01374e-06,-4.45892e-06,-1.06471e-05,-1.98082e-05,-3.21005e-05,-4.76203e-05,-6.64104e-05,-8.84685e-05,-0.000113754,-0.000142194,-0.000173691,-0.000208125,-0.000245359,-0.000285244,-0.00032762,-0.000372322,-0.000419178,-0.000468015,-0.000518658,-0.000570934,-0.000624668,-0.000679692,-0.000735839,-0.000792944,-0.00085085,-0.000909401,-0.000968447,-0.00102784,-0.00108745,-0.00114713,-0.00120675,-0.00126619,-0.00132532,-0.00138403,-0.0014422,-0.00149972,-0.00155648,-0.00161239,-0.00166733,-0.00172121,-0.00177394,-0.00182542,-0.00187556,-0.00192427,-0.00197147,-0.00201706,-0.00206098,-0.00210313,-0.00214343,-0.00218181,-0.00221819,-0.0022525,-0.00228465,-0.00231458,-0.00234222,-0.0023675,-0.00239036,-0.00241073,-0.00242856,-0.00244378,-0.00245634,-0.00246619,-0.00247329,-0.00247759,-0.00247905,-0.00247765,-0.00247335,-0.00246613,-0.00245598,-0.00244288,-0.00242683,-0.00240784,-0.00238591,-0.00236107,-0.00233334,-0.00230276,-0.00226936,-0.0022332,-0.00219434,-0.00215286,-0.00210882,-0.00206232,-0.00201345,-0.00196233,-0.00190906,-0.00185378,-0.00179661,-0.0017377,-0.0016772,-0.00161527,-0.00155209,-0.00148781,-0.00142264,-0.00135675,-0.00129034,-0.00122361,-0.00115676,-0.00109001,-0.00102356,-0.000957628,-0.000892429,-0.000828176,-0.000765085,-0.000703367,-0.000643232,-0.000584884,-0.000528524,-0.000474345,-0.000422529,-0.000373253,-0.000326679,-0.000282957,-0.00024222,-0.000204586,-0.000170151,-0.000138989,-0.000111147,-8.66467e-05,-6.5474e-05,-4.75797e-05,-3.28733e-05,-2.12188e-05,-1.24283e-05,-6.2568e-06,-2.39494e-06,-4.62437e-07,-0
-0,-1.28726e-06,-5.52752e-06,-1.30102e-05,-2.39455e-05,-3.84736e-05,-5.66733e-05,-7.85711e-05,-0.000104148,-0.000133346,-0.000166075,-0.000202221,-0.000241644,-0.00028419,-0.00032969,-0.000377966,-0.000428832,-0.000482096,-0.000537566,-0.000595047,-0.000654344,-0.000715265,-0.000777621,-0.000841226,-0.000905896,-0.000971454,-0.00103773,-0.00110455,-0.00117175,-0.00123919,-0.00130669,-0.00137413,-0.00144135,-0.00150821,-0.0015746,-0.00164036,-0.00170539,-0.00176956,-0.00183276,-0.00189486,-0.00195576,-0.00201536,-0.00207354,-0.0021302,-0.00218525,-0.00223858,-0.0022901,-0.00233971,-0.00238733,-0.00243286,-0.00247622,-0.00251731,-0.00255606,-0.00259237,-0.00262617,-0.00265738,-0.00268592,-0.00271173,-0.00273472,-0.00275484,-0.00277201,-0.00278618,-0.0027973,-0.00280529,-0.00281013,-0.00281177,-0.00281017,-0.0028053,-0.00279714,-0.00278566,-0.00277086,-0.00275273,-0.00273128,-0.00270651,-0.00267846,-0.00264714,-0.0026126,-0.00257489,-0.00253407,-0.0024902,-0.00244336,-0.00239364,-0.00234114,-0.00228597,-0.00222825,-0.00216811,-0.00210569,-0.00204114,-0.00197462,-0.00190631,-0.00183638,-0.00176502,-0.00169242,-0.0016188,-0.00154437,-0.00146934,-0.00139393,-0.00131839,-0.00124293,-0.0011678,-0.00109324,-0.00101949,-0.000946785,-0.00087537,-0.000805482,-0.000737356,-0.000671221,-0.0006073,-0.000545809,-0.000486955,-0.000430932,-0.000377925,-0.000328099,-0.000281606,-0.000238576,-0.00019912,-0.000163323,-0.000131241,-0.0001029,-7.82941e-05,-5.73753e-05,-4.00546e-05,-2.61949e-05,-1.56068e-05,-8.04185e-06,-3.18769e-06,-6.60743e-07,-0
-0,-1.58543e-06,-6.69023e-06,-1.55772e-05,-2.84325e-05,-4.5374e-05,-6.64599e-05,-9.16961e-05,-0.000121044,-0.000154426,-0.000191734,-0.000232832,-0.000277561,-0.000325747,-0.000377201,-0.000431723,-0.000489107,-0.000549141,-0.00061161,-0.000676299,-0.000742994,-0.000811482,-0.000881551,-0.000952997,-0.00102562,-0.00109921,-0.0011736,-0.00124858,-0.00132398,-0.00139962,-0.00147533,-0.00155096,-0.00162634,-0.00170131,-0.00177573,-0.00184946,-0.00192236,-0.00199429,-0.00206512,-0.00213473,-0.00220298,-0.00226977,-0.00233497,-0.00239846,-0.00246014,-0.0025199,-0.00257762,-0.00263321,-0.00268656,-0.00273756,-0.00278613,-0.00283216,-0.00287555,-0.00291623,-0.00295408,-0.00298903,-0.003021,-0.0030499,-0.00307564,-0.00309817,-0.00311739,-0.00313326,-0.00314569,-0.00315464,-0.00316006,-0.00316189,-0.00316009,-0.00315464,-0.00314549,-0.00313264,-0.00311607,-0.00309577,-0.00307175,-0.00304403,-0.00301262,-0.00297756,-0.0029389,-0.00289669,-0.00285099,-0.00280188,-0.00274944,-0.00269379,-0.00263501,-0.00257325,-0.00250863,-0.0024413,-0.00237141,-0.00229914,-0.00222466,-0.00214816,-0.00206985,-0.00198992,-0.00190861,-0.00182614,-0.00174275,-0.00165868,-0.00157417,-0.00148949,-0.0014049,-0.00132066,-0.00123703,-0.00115429,-0.0010727,-0.000992526,-0.000914038,-0.000837494,-0.00076315,-0.000691253,-0.000622044,-0.000555753,-0.000492595,-0.000432775,-0.000376478,-0.000323874,-0.000275109,-0.000230306,-0.000189563,-0.000152947,-0.000120493,-9.21983e-05,-6.8022e-05,-4.78772e-05,-3.16283e-05,-1.90856e-05,-1.00006e-05,-4.05983e-06,-8.79664e-07,-0
-0,-1.90728e-06,-7.9436e-06,-1.83411e-05,-3.32579e-05,-5.27859e-05,-7.69587e-05,-0.000105759,-0.000139126,-0.00017696,-0.00021913,-0.000265478,-0.000315824,-0.000369973,-0.000427712,-0.000488821,-0.000553071,-0.000620228,-0.000690057,-0.000762319,-0.000836779,-0.000913204,-0.00099136,-0.00107102,-0.00115197,-0.00123398,-0.00131685,-0.00140036,-0.00148433,-0.00156856,-0.00165285,-0.00173704,-0.00182094,-0.00190438,-0.0019872,-0.00206925,-0.00215036,-0.00223039,-0.0023092,-0.00238664,-0.00246257,-0.00253686,-0.00260938,-0.00268001,-0.00274862,-0.00281508,-0.00287928,-0.00294111,-0.00300044,-0.00305716,-0.00311117,-0.00316235,-0.00321061,-0.00325583,-0.00329793,-0.00333679,-0.00337234,-0.00340447,-0.0034331,-0.00345814,-0.00347952,-0.00349716,-0.00351099,-0.00352095,-0.00352698,-0.00352903,-0.00352704,-0.00352099,-0.00351084,-0.00349657,-0.00347816,-0.00345561,-0.00342894,-0.00339814,-0.00336325,-0.00332431,-0.00328136,-0.00323446,-0.00318368,-0.00312912,-0.00307086,-0.00300902,-0.00294371,-0.00287508,-0.00280327,-0.00272844,-0.00265076,-0.00257043,-0.00248764,-0.00240259,-0.00231552,-0.00222666,-0.00213624,-0.00204452,-0.00195176,-0.00185823,-0.00176421,-0.00166998,-0.00157582,-0.00148203,-0.00138891,-0.00129675,-0.00120584,-0.00111648,-0.00102896,-0.000943579,-0.000860608,-0.000780324,-0.000702992,-0.000628867,-0.000558187,-0.000491178,-0.000428047,-0.000368979,-0.000314139,-0.000263666,-0.00021767,-0.000176231,-0.000139391,-0.000107158,-7.9495e-05,-5.63209e-05,-3.75027e-05,-2.28534e-05,-1.21256e-05,-5.00773e-06,-1.11804e-06,-0
-0,-2.25186e-06,-9.28429e-06,-2.1295e-05,-3.84105e-05,-6.06931e-05,-8.81489e-05,-0.000120734,-0.000158362,-0.000200908,-0.000248218,-0.000300109,-0.000356379,-0.000416807,-0.000481158,-0.000549188,-0.000620646,-0.000695275,-0.000772816,-0.000853009,-0.000935596,-0.00102032,-0.00110693,-0.00119517,-0.00128481,-0.00137561,-0.00146733,-0.00155975,-0.00165265,-0.00174582,-0.00183906,-0.00193217,-0.00202494,-0.00211721,-0.00220878,-0.00229948,-0.00238915,-0.00247762,-0.00256473,-0.00265032,-0.00273424,-0.00281635,-0.0028965,-0.00297455,-0.00305037,-0.00312382,-0.00319476,-0.00326308,-0.00332864,-0.00339132,-0.00345099,-0.00350755,-0.00356088,-0.00361085,-0.00365736,-0.00370031,-0.00373959,-0.0037751,-0.00380674,-0.00383442,-0.00385806,-0.00387756,-0.00389286,-0.00390389,-0.00391057,-0.00391286,-0.0039107,-0.00390404,-0.00389287,-0.00387714,-0.00385685,-0.00383198,-0.00380256,-0.00376859,-0.00373009,-0.00368712,-0.00363973,-0.00358797,-0.00353194,-0.00347171,-0.00340741,-0.00333914,-0.00326704,-0.00319127,-0.00311198,-0.00302936,-0.00294358,-0.00285486,-0.00276342,-0.00266948,-0.0025733,-0.00247511,-0.0023752,-0.00227384,-0.00217132,-0.00206793,-0.00196397,-0.00185976,-0.00175562,-0.00165186,-0.00154881,-0.0014468,-0.00134614,-0.00124717,-0.0011502,-0.00105556,-0.000963541,-0.00087446,-0.000788603,-0.000706248,-0.000627661,-0.000553088,-0.000482758,-0.000416876,-0.000355626,-0.000299161,-0.000247607,-0.000201057,-0.000159564,-0.000123145,-9.17706e-05,-6.53659e-05,-4.38032e-05,-2.6899e-05,-1.44101e-05,-6.02785e-06,-1.37495e-06,-0