0,0,0,0,0,0,0,0,0,0,0,0,0,0,0,0,0,0,0,0,0,0,0,0,0,0,0,0,0,0,0,0,0,0,0,0,0,0,0,0,0,0,0,0,0,0,0,0,0,0,0,0,0,0,0,0,0,0,0,0,0,0,0,0,0,0,0,0,0,0,0,0,0,0,0,0,0,0,0,0,0,0,0,0,0,0,0,0,0,0,0,0,0,0,0,0,0,0,0,0,0,0,0,0,0,0,0,0,0,0,0,0,0,0,0,0,0,0,0,0,0,0,0,0,0,0,0,0
0,4.46854e-06,1.28554e-05,2.09695e-05,2.58653e-05,2.56635e-05,1.92587e-05,6.0731e-06,-1.41187e-05,-4.13081e-05,-7.53336e-05,-0.000115932,-0.00016277,-0.000215482,-0.000273671,-0.000336934,-0.000404863,-0.000477052,-0.000553105,-0.000632635,-0.000715269,-0.000800647,-0.000888424,-0.000978272,-0.00106987,-0.00116293,-0.00125716,-0.00135229,-0.00144806,-0.00154423,-0.00164057,-0.00173686,-0.00183289,-0.00192845,-0.00202336,-0.00211744,-0.00221051,-0.0023024,-0.00239294,-0.00248199,-0.00256939,-0.00265499,-0.00273863,-0.0028202,-0.00289953,-0.00297651,-0.00305098,-0.00312282,-0.0031919,-0.00325808,-0.00332124,-0.00338125,-0.00343798,-0.00349132,-0.00354112,-0.00358729,-0.00362969,-0.00366821,-0.00370274,-0.00373317,-0.00375939,-0.0037813,-0.00379881,-0.00381183,-0.00382026,-0.00382405,-0.00382311,-0.00381738,-0.00380682,-0.00379138,-0.00377104,-0.00374576,-0.00371555,-0.00368041,-0.00364035,-0.00359542,-0.00354566,-0.00349113,-0.0034319,-0.00336809,-0.00329979,-0.00322714,-0.00315027,-0.00306936,-0.00298459,-0.00289615,-0.00280426,-0.00270915,-0.00261107,-0.00251029,-0.00240709,-0.00230177,-0.00219464,-0.00208603,-0.00197628,-0.00186573,-0.00175476,-0.00164373,-0.00153303,-0.00142304,-0.00131417,-0.00120681,-0.00110137,-0.000998255,-0.000897865,-0.000800612,-0.000706892,-0.000617107,-0.000531642,-0.000450882,-0.000375191,-0.000304926,-0.000240421,-0.000181989,-0.000129914,-8.44458e-05,-4.57884e-05,-1.40895e-05,1.05783e-05,2.82417e-05,3.90605e-05,4.33798e-05,4.17993e-05,3.52819e-05,2.52926e-05,1.39822e-05,4.32618e-06,0
0,6.38557e-06,1.65272e-05,2.45022e-05,2.61146e-05,1.84888e-05,-2.17764e-07,-3.10684e-05,-7.45579e-05,-0.000130775,-0.000199519,-0.000280394,-0.000372865,-0.000476303,-0.000590027,-0.00071332,-0.000845448,-0.000985675,-0.00113327,-0.00128753,-0.00144774,-0.00161324,-0.00178336,-0.0019575,-0.00213505,-0.00231543,-0.0024981,-0.00268254,-0.00286825,-0.00305477,-0.00324163,-0.00342841,-0.00361471,-0.00380012,-0.00398428,-0.00416683,-0.00434742,-0.00452573,-0.00470142,-0.0048742,-0.00504376,-0.00520981,-0.00537207,-0.00553025,-0.00568408,-0.0058333,-0.00597764,-0.00611684,-0.00625065,-0.0063788,-0.00650106,-0.00661716,-0.00672688,-0.00682997,-0.00692618,-0.0070153,-0.00709709,-0.00717134,-0.00723782,-0.00729632,-0.00734666,-0.00738863,-0.00742205,-0.00744677,-0.0074626,-0.00746943,-0.00746711,-0.00745553,-0.0074346,-0.00740425,-0.00736442,-0.00731507,-0.0072562,-0.00718783,-0.00710998,-0.00702274,-0.0069262,-0.00682048,-0.00670574,-0.00658216,-0.00644997,-0.00630941,-0.00616077,-0.00600436,-0.00584053,-0.00566966,-0.00549218,-0.00530853,-0.00511918,-0.00492466,-0.00472549,-0.00452226,-0.00431556,-0.00410601,-0.00389427,-0.00368101,-0.00346692,-0.00325271,-0.00303912,-0.00282688,-0.00261674,-0.00240948,-0.00220585,-0.00200663,-0.00181259,-0.0016245,-0.0014431,-0.00126916,-0.00110339,-0.000946522,-0.000799226,-0.000662159,-0.000535935,-0.000421118,-0.000318213,-0.000227652,-0.000149774,-8.47996e-05,-3.28037e-05,6.33061e-06,3.29708e-05,4.78086e-05,5.1968e-05,4.71312e-05,3.5701e-05,2.09598e-05,7.21578e-06,0
0,5.75355e-06,1.30957e-05,1.5411e-05,8.00659e-06,-1.24263e-05,-4.81086e-05,-0.000100401,-0.000169996,-0.000257081,-0.000361467,-0.000482687,-0.000620081,-0.000772844,-0.00094008,-0.00112083,-0.00131412,-0.00151892,-0.00173425,-0.0019591,-0.00219251,-0.00243352,-0.00268121,-0.0029347,-0.00319314,-0.00345569,-0.00372158,-0.00399007,-0.00426041,-0.00453194,-0.004804,-0.00507596,-0.00534723,-0.00561722,-0.0058854,-0.00615123,-0.00641422,-0.00667387,-0.00692971,-0.00718129,-0.00742816,-0.00766989,-0.00790607,-0.00813628,-0.00836013,-0.00857722,-0.00878715,-0.00898956,-0.00918407,-0.00937031,-0.0095479,-0.0097165,-0.00987575,-0.0100253,-0.0101648,-0.010294,-0.0104124,-0.0105198,-0.0106159,-0.0107004,-0.0107729,-0.0108333,-0.0108812,-0.0109164,-0.0109388,-0.010948,-0.0109439,-0.0109264,-0.0108954,-0.0108506,-0.0107922,-0.0107199,-0.0106338,-0.010534,-0.0104205,-0.0102934,-0.0101528,-0.00999902,-0.00983217,-0.00965257,-0.00946052,-0.00925641,-0.00904063,-0.00881366,-0.00857599,-0.00832818,-0.00807083,-0.0078046,-0.00753016,-0.00724826,-0.00695967,-0.00666523,-0.00636578,-0.00606223,-0.00575551,-0.00544657,-0.00513643,-0.00482609,-0.0045166,-0.00420902,-0.00390443,-0.00360391,-0.00330857,-0.00301949,-0.00273777,-0.0024645,-0.00220076,-0.00194759,-0.00170604,-0.00147709,-0.0012617,-0.00106077,-0.000875156,-0.000705617,-0.000552832,-0.000417362,-0.000299634,-0.000199904,-0.000118216,-5.43459e-05,-7.74171e-06,2.25713e-05,3.80871e-05,4.09496e-05,3.4084e-05,2.13561e-05,7.7778e-06,0
0,3.48658e-06,4.84947e-06,-2.39491e-06,-2.29509e-05,-6.02047e-05,-0.00011649,-0.000193284,-0.000291375,-0.000411004,-0.000551988,-0.000713816,-0.000895737,-0.00109682,-0.00131602,-0.00155218,-0.00180412,-0.00207061,-0.00235043,-0.00264234,-0.00294514,-0.00325763,-0.00357868,-0.00390715,-0.00424196,-0.00458208,-0.00492649,-0.00527424,-0.00562441,-0.00597611,-0.00632851,-0.00668078,-0.00703215,-0.00738189,-0.00772927,-0.00807361,-0.00841426,-0.00875057,-0.00908192,-0.00940774,-0.00972743,-0.0100404,-0.0103462,-0.0106442,-0.0109339,-0.0112148,-0.0114864,-0.0117482,-0.0119997,-0.0122405,-0.0124699,-0.0126877,-0.0128934,-0.0130864,-0.0132663,-0.0134328,-0.0135854,-0.0137237,-0.0138473,-0.0139558,-0.0140488,-0.0141261,-0.0141873,-0.014232,-0.0142601,-0.0142712,-0.0142651,-0.0142417,-0.0142007,-0.0141422,-0.0140658,-0.0139718,-0.0138599,-0.0137303,-0.0135831,-0.0134184,-0.0132364,-0.0130373,-0.0128215,-0.0125893,-0.0123411,-0.0120774,-0.0117987,-0.0115057,-0.0111989,-0.0108791,-0.0105471,-0.0102037,-0.00984975,-0.00948623,-0.00911413,-0.00873451,-0.00834846,-0.00795712,-0.0075617,-0.00716343,-0.00676355,-0.00636339,-0.00596426,-0.00556752,-0.00517453,-0.00478668,-0.00440536,-0.00403195,-0.00366783,-0.00331439,-0.00297297,-0.00264491,-0.0023315,-0.00203396,-0.0017535,-0.00149124,-0.0012482,-0.00102531,-0.000823399,-0.000643117,-0.00048495,-0.000349172,-0.000235789,-0.000144494,-7.45902e-05,-2.49173e-05,6.25152e-06,2.13091e-05,2.34416e-05,1.67756e-05,6.62682e-06,0
0,2.93933e-07,-6.41412e-06,-2.59247e-05,-6.25961e-05,-0.000119629,-0.00019927,-0.000302966,-0.000431495,-0.000585089,-0.000763541,-0.000966294,-0.00119252,-0.00144119,-0.00171113,-0.00200104,-0.00230957,-0.00263532,-0.00297687,-0.00333279,-0.00370168,-0.00408214,-0.00447282,-0.00487238,-0.00527956,-0.0056931,-0.00611181,-0.00653453,-0.00696016,-0.00738763,-0.00781593,-0.00824407,-0.0086711,-0.00909614,-0.00951831,-0.00993677,-0.0103507,-0.0107594,-0.011162,-0.0115578,-0.0119462,-0.0123264,-0.0126978,-0.0130597,-0.0134114,-0.0137524,-0.014082,-0.0143997,-0.0147048,-0.0149967,-0.015275,-0.0155389,-0.015788,-0.0160218,-0.0162396,-0.016441,-0.0166255,-0.0167925,-0.0169417,-0.0170725,-0.0171846,-0.0172775,-0.0173508,-0.0174041,-0.0174372,-0.0174498,-0.0174415,-0.0174122,-0.0173617,-0.0172898,-0.0171965,-0.0170816,-0.0169453,-0.0167875,-0.0166085,-0.0164083,-0.0161872,-0.0159455,-0.0156836,-0.0154019,-0.0151009,-0.0147813,-0.0144436,-0.0140886,-0.013717,-0.0133298,-0.0129278,-0.012512,-0.0120836,-0.0116437,-0.0111934,-0.010734,-0.0102669,-0.00979332,-0.00931484,-0.00883286,-0.00834892,-0.00786455,-0.00738136,-0.00690094,-0.00642494,-0.005955,-0.00549277,-0.00503991,-0.00459806,-0.00416884,-0.00375386,-0.00335468,-0.00297282,-0.00260974,-0.00226683,-0.00194538,-0.0016466,-0.00137153,-0.00112112,-0.0008961,-0.000697002,-0.000524111,-0.000377414,-0.000256546,-0.00016073,-8.86987e-05,-3.86192e-05,-7.99773e-06,6.4207e-06,8.79478e-06,4.40006e-06,0
0,-3.37782e-06,-1.94404e-05,-5.30071e-05,-0.000107842,-0.000186769,-0.000291789,-0.000424196,-0.000584665,-0.000773356,-0.000989995,-0.00123396,-0.00150434,-0.00180002,-0.00211971,-0.002462,-0.00282538,-0.00320833,-0.00360924,-0.00402655,-0.00445865,-0.00490399,-0.00536102,-0.00582825,-0.0063042,-0.00678747,-0.00727667,-0.00777048,-0.00826763,-0.00876688,-0.00926705,-0.009767,-0.0102656,-0.0107619,-0.0112548,-0.0117434,-0.0122266,-0.0127037,-0.0131736,-0.0136356,-0.0140889,-0.0145325,-0.0149658,-0.015388,-0.0157983,-0.0161959,-0.0165803,-0.0169506,-0.0173062,-0.0176463,-0.0179704,-0.0182777,-0.0185677,-0.0188397,-0.019093,-0.0193272,-0.0195415,-0.0197355,-0.0199085,-0.0200602,-0.0201899,-0.0202972,-0.0203817,-0.020443,-0.0204806,-0.0204943,-0.0204837,-0.0204486,-0.0203888,-0.0203042,-0.0201946,-0.02006,-0.0199005,-0.019716,-0.0195068,-0.019273,-0.019015,-0.0187332,-0.0184278,-0.0180996,-0.017749,-0.0173767,-0.0169835,-0.0165702,-0.0161377,-0.0156871,-0.0152194,-0.0147357,-0.0142374,-0.0137257,-0.0132019,-0.0126677,-0.0121244,-0.0115736,-0.0110171,-0.0104565,-0.00989346,-0.0093299,-0.00876758,-0.00820836,-0.0076541,-0.00710671,-0.00656806,-0.00604004,-0.00552453,-0.00502339,-0.00453843,-0.00407143,-0.00362412,-0.00319813,-0.00279503,-0.00241627,-0.00206318,-0.00173696,-0.00143861,-0.00116894,-0.000928549,-0.000717727,-0.000536462,-0.000384373,-0.000260653,-0.00016401,-9.25962e-05,-4.39412e-05,-1.48615e-05,-1.3563e-06,1.54695e-06,0
0,-7.26674e-06,-3.3397e-05,-8.21188e-05,-0.00015645,-0.0002587,-0.000390513,-0.000552924,-0.000746429,-0.000971051,-0.00122641,-0.00151178,-0.00182617,-0.00216837,-0.00253697,-0.00293046,-0.00334723,-0.0037856,-0.00424384,-0.00472023,-0.00521304,-0.00572053,-0.00624103,-0.00677286,-0.0073144,-0.00786408,-0.00842037,-0.00898177,-0.00954687,-0.0101143,-0.0106827,-0.0112508,-0.0118173,-0.0123811,-0.0129411,-0.013496,-0.0140449,-0.0145867,-0.0151204,-0.015645,-0.0161596,-0.0166633,-0.0171552,-0.0176343,-0.0180999,-0.0185511,-0.0189871,-0.0194071,-0.0198103,-0.020196,-0.0205633,-0.0209115,-0.02124,-0.021548,-0.0218347,-0.0220996,-0.022342,-0.0225612,-0.0227567,-0.0229278,-0.023074,-0.0231948,-0.0232897,-0.0233582,-0.0233999,-0.0234144,-0.0234015,-0.0233608,-0.0232921,-0.0231953,-0.0230702,-0.0229169,-0.0227353,-0.0225256,-0.0222878,-0.0220224,-0.0217295,-0.0214097,-0.0210634,-0.0206912,-0.0202937,-0.0198718,-0.0194263,-0.0189581,-0.0184683,-0.017958,-0.0174284,-0.0168808,-0.0163166,-0.0157372,-0.0151443,-0.0145395,-0.0139245,-0.013301,-0.0126709,-0.012036,-0.0113985,-0.0107601,-0.010123,-0.00948931,-0.008861,-0.00824022,-0.00762908,-0.00702967,-0.00644409,-0.00587439,-0.00532259,-0.00479064,-0.00428045,-0.00379384,-0.00333251,-0.00289807,-0.00249195,-0.00211547,-0.00176971,-0.00145555,-0.00117364,-0.000924305,-0.000707561,-0.000523042,-0.000369967,-0.000247079,-0.000152601,-8.41741e-05,-3.88053e-05,-1.27911e-05,-1.64136e-06,0
0,-1.1218e-05,-4.77448e-05,-0.00011221,-0.000206818,-0.000333278,-0.000492789,-0.000686055,-0.000913324,-0.00117443,-0.00146884,-0.0017957,-0.00215392,-0.00254216,-0.00295894,-0.00340262,-0.00387147,-0.00436372,-0.0048775,-0.00541097,-0.00596226,-0.00652952,-0.00711091,-0.00770463,-0.00830891,-0.00892204,-0.00954234,-0.0101682,-0.010798,-0.0114303,-0.0120636,-0.0126965,-0.0133276,-0.0139556,-0.0145792,-0.0151971,-0.0158083,-0.0164115,-0.0170057,-0.0175897,-0.0181625,-0.0187231,-0.0192704,-0.0198035,-0.0203215,-0.0208234,-0.0213083,-0.0217754,-0.0222236,-0.0226522,-0.0230604,-0.0234473,-0.0238121,-0.0241541,-0.0244724,-0.0247663,-0.0250351,-0.0252782,-0.0254947,-0.0256841,-0.0258458,-0.0259792,-0.0260838,-0.026159,-0.0262045,-0.0262197,-0.0262045,-0.0261584,-0.0260812,-0.0259728,-0.025833,-0.0256619,-0.0254594,-0.0252257,-0.024961,-0.0246656,-0.0243398,-0.023984,-0.023599,-0.0231853,-0.0227436,-0.0222748,-0.0217799,-0.0212598,-0.0207158,-0.0201491,-0.0195611,-0.0189531,-0.0183267,-0.0176835,-0.0170252,-0.0163537,-0.0156708,-0.0149785,-0.0142788,-0.0135737,-0.0128655,-0.0121563,-0.0114483,-0.0107438,-0.0100451,-0.00935451,-0.00867431,-0.0080068,-0.00735425,-0.00671892,-0.00610298,-0.00550859,-0.00493778,-0.00439253,-0.00387469,-0.00338598,-0.00292796,-0.00250204,-0.00210938,-0.00175095,-0.00142743,-0.00113923,-0.000886396,-0.000668626,-0.000485202,-0.000334963,-0.000216259,-0.000126925,-6.42375e-05,-2.48921e-05,-4.97868e-06,0
0,-1.51396e-05,-6.2138e-05,-0.000142573,-0.000257821,-0.000408948,-0.000596651,-0.000821252,-0.00108269,-0.00138057,-0.00171417,-0.00208248,-0.00248427,-0.00291809,-0.00338234,-0.00387528,-0.00439508,-0.00493982,-0.00550758,-0.00609635,-0.00670417,-0.00732906,-0.00796906,-0.00862224,-0.00928672,-0.00996065,-0.0106422,-0.0113297,-0.0120214,-0.0127156,-0.0134108,-0.0141054,-0.014798,-0.0154871,-0.0161712,-0.0168492,-0.0175196,-0.0181813,-0.0188329,-0.0194733,-0.0201014,-0.020716,-0.021316,-0.0219004,-0.0224681,-0.0230181,-0.0235494,-0.024061,-0.024552,-0.0250214,-0.0254683,-0.0258918,-0.0262911,-0.0266652,-0.0270134,-0.0273348,-0.0276287,-0.0278942,-0.0281307,-0.0283374,-0.0285138,-0.0286591,-0.0287728,-0.0288544,-0.0289034,-0.0289193,-0.0289018,-0.0288505,-0.0287653,-0.0286459,-0.0284922,-0.0283042,-0.028082,-0.0278256,-0.0275353,-0.0272115,-0.0268545,-0.0264648,-0.0260431,-0.02559,-0.0251065,-0.0245934,-0.0240517,-0.0234826,-0.0228873,-0.0222672,-0.0216237,-0.0209585,-0.0202731,-0.0195694,-0.0188492,-0.0181145,-0.0173672,-0.0166095,-0.0158437,-0.0150718,-0.0142964,-0.0135197,-0.0127442,-0.0119722,-0.0112064,-0.010449,-0.00970277,-0.00897,-0.00825319,-0.00755475,-0.00687704,-0.00622233,-0.00559285,-0.00499069,-0.00441782,-0.0038761,-0.00336719,-0.00289258,-0.00245355,-0.00205111,-0.00168605,-0.00135881,-0.00106955,-0.000818039,-0.000603663,-0.000425397,-0.000281778,-0.000170881,-9.03179e-05,-3.72356e-05,-8.34674e-06,0
0,-1.89803e-05,-7.63576e-05,-0.000172735,-0.000308681,-0.000484602,-0.000700667,-0.000956771,-0.00125252,-0.00158724,-0.00195998,-0.00236957,-0.00281461,-0.00329351,-0.00380455,-0.00434589,-0.00491557,-0.00551159,-0.00613189,-0.00677438,-0.00743699,-0.00811761,-0.00881418,-0.00952467,-0.0102471,-0.0109794,-0.0117198,-0.0124663,-0.0132172,-0.0139707,-0.0147251,-0.0154788,-0.01623,-0.0169774,-0.0177194,-0.0184546,-0.0191815,-0.0198988,-0.0206052,-0.0212993,-0.02198,-0.0226461,-0.0232962,-0.0239294,-0.0245444,-0.0251401,-0.0257156,-0.0262696,-0.0268012,-0.0273094,-0.0277932,-0.0282515,-0.0286836,-0.0290883,-0.0294649,-0.0298124,-0.03013,-0.030417,-0.0306725,-0.0308957,-0.031086,-0.0312427,-0.0313651,-0.0314528,-0.0315052,-0.0315218,-0.0315022,-0.0314461,-0.0313533,-0.0312235,-0.0310567,-0.0308527,-0.0306118,-0.0303339,-0.0300195,-0.0296687,-0.0292822,-0.0288603,-0.0284039,-0.0279136,-0.0273903,-0.0268351,-0.026249,-0.0256333,-0.0249894,-0.0243186,-0.0236225,-0.0229029,-0.0221615,-0.0214002,-0.020621,-0.019826,-0.0190174,-0.0181975,-0.0173685,-0.016533,-0.0156933,-0.0148521,-0.0140119,-0.0131754,-0.0123451,-0.0115238,-0.010714,-0.00991842,-0.00913966,-0.00838029,-0.00764281,-0.00692966,-0.00624317,-0.00558558,-0.004959,-0.00436536,-0.00380646,-0.00328388,-0.00279897,-0.00235287,-0.00194642,-0.00158017,-0.00125437,-0.000968898,-0.000723285,-0.000516676,-0.000347825,-0.000215091,-0.000116453,-4.95352e-05,-1.16694e-05,0
0,-2.27075e-05,-9.02672e-05,-0.000202387,-0.000358867,-0.000559463,-0.000803805,-0.00109134,-0.00142131,-0.00179274,-0.00220443,-0.002655,-0.00314287,-0.00366631,-0.00422347,-0.00481237,-0.00543097,-0.00607712,-0.00674869,-0.00744348,-0.0081593,-0.00889395,-0.00964528,-0.0104111,-0.0111894,-0.011978,-0.012775,-0.0135783,-0.0143861,-0.0151964,-0.0160076,-0.0168177,-0.0176253,-0.0184284,-0.0192257,-0.0200156,-0.0207965,-0.0215669,-0.0223256,-0.0230711,-0.023802,-0.0245172,-0.0252152,-0.0258949,-0.026555,-0.0271944,-0.027812,-0.0284065,-0.0289769,-0.0295221,-0.030041,-0.0305326,-0.0309959,-0.0314299,-0.0318336,-0.0322061,-0.0325465,-0.0328539,-0.0331276,-0.0333666,-0.0335703,-0.0337379,-0.0338688,-0.0339624,-0.0340181,-0.0340355,-0.0340141,-0.0339536,-0.0338537,-0.0337142,-0.0335349,-0.033316,-0.0330573,-0.0327592,-0.0324219,-0.0320457,-0.0316311,-0.0311788,-0.0306893,-0.0301636,-0.0296027,-0.0290074,-0.0283792,-0.0277191,-0.0270288,-0.0263097,-0.0255635,-0.024792,-0.0239971,-0.0231809,-0.0223453,-0.0214928,-0.0206255,-0.0197459,-0.0188565,-0.0179599,-0.0170587,-0.0161555,-0.0152532,-0.0143545,-0.0134622,-0.0125791,-0.011708,-0.0108517,-0.010013,-0.00919452,-0.00839899,-0.00762896,-0.0068869,-0.00617516,-0.00549598,-0.0048514,-0.00424331,-0.00367342,-0.00314316,-0.00265377,-0.0022062,-0.00180109,-0.00143882,-0.0011194,-0.000842527,-0.000607538,-0.000413434,-0.00025888,-0.000142235,-6.15998e-05,-1.48998e-05,0
0,-2.63089e-05,-0.000103788,-0.000231338,-0.000408033,-0.000633005,-0.000905344,-0.00122405,-0.00158797,-0.00199581,-0.00244611,-0.00293725,-0.00346748,-0.00403489,-0.00463748,-0.00527314,-0.00593972,-0.00663496,-0.00735662,-0.0081024,-0.00887001,-0.00965716,-0.0104616,-0.0112811,-0.0121134,-0.0129564,-0.0138079,-0.014666,-0.0155285,-0.0163935,-0.0172592,-0.0181237,-0.0189852,-0.0198419,-0.0206922,-0.0215345,-0.0223671,-0.0231885,-0.0239973,-0.0247919,-0.0255709,-0.026333,-0.0270769,-0.0278011,-0.0285045,-0.0291857,-0.0298435,-0.0304768,-0.0310843,-0.031665,-0.0322176,-0.032741,-0.0332343,-0.0336963,-0.0341261,-0.0345226,-0.0348849,-0.035212,-0.0355032,-0.0357575,-0.0359742,-0.0361524,-0.0362916,-0.0363911,-0.0364503,-0.0364686,-0.0364457,-0.0363811,-0.0362747,-0.0361261,-0.0359353,-0.0357022,-0.0354269,-0.0351097,-0.0347507,-0.0343504,-0.0339092,-0.0334279,-0.0329071,-0.0323478,-0.0317509,-0.0311176,-0.0304491,-0.0297467,-0.0290121,-0.0282469,-0.0274528,-0.0266316,-0.0257855,-0.0249166,-0.024027,-0.0231192,-0.0221955,-0.0212586,-0.0203111,-0.0193557,-0.0183951,-0.0174322,-0.0164699,-0.0155111,-0.0145588,-0.0136158,-0.0126853,-0.01177,-0.010873,-0.00999696,-0.00914482,-0.00831923,-0.0075228,-0.006758,-0.00602717,-0.00533249,-0.00467595,-0.00405935,-0.00348425,-0.00295199,-0.00246363,-0.00201994,-0.00162141,-0.00126823,-0.00096027,-0.000697083,-0.000477927,-0.000301783,-0.000167389,-7.33078e-05,-1.80086e-05,0
0,-2.97749e-05,-0.000116876,-0.000259468,-0.000455959,-0.000704879,-0.0010048,-0.00135425,-0.00175171,-0.00219554,-0.002684,-0.00321523,-0.00378726,-0.00439801,-0.00504533,-0.00572697,-0.00644064,-0.00718398,-0.00795464,-0.00875021,-0.00956832,-0.0104066,-0.0112626,-0.0121342,-0.0130189,-0.0139145,-0.0148188,-0.0157298,-0.0166451,-0.017563,-0.0184812,-0.019398,-0.0203114,-0.0212196,-0.0221209,-0.0230136,-0.0238959,-0.0247662,-0.0256231,-0.0264649,-0.0272901,-0.0280973,-0.0288851,-0.0296522,-0.030397,-0.0311184,-0.0318149,-0.0324854,-0.0331287,-0.0337434,-0.0343284,-0.0348825,-0.0354047,-0.0358938,-0.0363487,-0.0367684,-0.0371519,-0.0374982,-0.0378063,-0.0380755,-0.0383049,-0.0384936,-0.0386411,-0.0387464,-0.0388092,-0.0388288,-0.0388047,-0.0387366,-0.0386243,-0.0384673,-0.0382657,-0.0380194,-0.0377285,-0.0373932,-0.0370138,-0.0365906,-0.0361243,-0.0356154,-0.0350649,-0.0344735,-0.0338424,-0.0331726,-0.0324657,-0.0317229,-0.0309459,-0.0301364,-0.0292963,-0.0284275,-0.0275321,-0.0266125,-0.0256709,-0.0247098,-0.0237318,-0.0227396,-0.0217359,-0.0207235,-0.0197055,-0.0186847,-0.0176641,-0.016647,-0.0156363,-0.0146351,-0.0136466,-0.0126739,-0.0117199,-0.0107876,-0.00988004,-0.00899998,-0.00815018,-0.00733321,-0.00655155,-0.00580749,-0.00510313,-0.00444039,-0.00382094,-0.00324624,-0.00271746,-0.00223553,-0.00180108,-0.00141446,-0.00107574,-0.000784694,-0.00054085,-0.000343498,-0.000191746,-8.4585e-05,-2.09809e-05,0
0,-3.3104e-05,-0.00012951,-0.000286718,-0.000502515,-0.000774872,-0.00110185,-0.00148153,-0.00191201,-0.00239131,-0.00291738,-0.00348813,-0.00410136,-0.0047548,-0.00544613,-0.00617297,-0.00693287,-0.00772338,-0.00854201,-0.00938628,-0.0102537,-0.0111418,-0.0120482,-0.0129703,-0.0139059,-0.0148526,-0.0158081,-0.0167703,-0.0177368,-0.0187056,-0.0196747,-0.020642,-0.0216055,-0.0225634,-0.0235139,-0.0244551,-0.0253853,-0.0263028,-0.0272059,-0.0280932,-0.0289629,-0.0298136,-0.0306438,-0.031452,-0.0322368,-0.0329968,-0.0337308,-0.0344372,-0.0351149,-0.0357625,-0.0363789,-0.0369627,-0.0375128,-0.0380281,-0.0385075,-0.0389497,-0.0393538,-0.0397188,-0.0400437,-0.0403275,-0.0405694,-0.0407686,-0.0409243,-0.0410357,-0.0411023,-0.0411235,-0.0410988,-0.0410277,-0.0409101,-0.0407455,-0.0405339,-0.0402754,-0.0399698,-0.0396175,-0.0392188,-0.038774,-0.0382838,-0.0377488,-0.0371699,-0.0365479,-0.0358841,-0.0351796,-0.0344358,-0.0336542,-0.0328365,-0.0319844,-0.0311,-0.0301853,-0.0292425,-0.0282739,-0.027282,-0.0262694,-0.0252387,-0.0241928,-0.0231345,-0.0220669,-0.0209929,-0.0199157,-0.0188385,-0.0177644,-0.0166967,-0.0156386,-0.0145934,-0.0135643,-0.0125544,-0.0115669,-0.0106048,-0.0096712,-0.00876881,-0.00790042,-0.00706859,-0.00627575,-0.00552412,-0.00481574,-0.0041524,-0.00353568,-0.0029669,-0.00244712,-0.00197715,-0.0015575,-0.00118844,-0.000869984,-0.000601921,-0.000383844,-0.000215207,-9.53937e-05,-2.38093e-05,0
0,-3.63019e-05,-0.000141688,-0.000313064,-0.000547645,-0.00084287,-0.00119632,-0.00160564,-0.00206854,-0.00258271,-0.00314579,-0.00375543,-0.00440921,-0.00510466,-0.00583928,-0.00661052,-0.00741583,-0.00825261,-0.00911827,-0.0100102,-0.0109259,-0.0118626,-0.012818,-0.0137895,-0.0147747,-0.0157711,-0.0167764,-0.0177882,-0.0188044,-0.0198226,-0.0208409,-0.0218571,-0.0228691,-0.0238751,-0.0248731,-0.0258612,-0.0268377,-0.0278008,-0.0287487,-0.0296798,-0.0305925,-0.0314852,-0.0323563,-0.0332044,-0.0340279,-0.0348254,-0.0355954,-0.0363367,-0.0370478,-0.0377274,-0.0383741,-0.0389868,-0.0395642,-0.0401051,-0.0406083,-0.0410726,-0.041497,-0.0418803,-0.0422217,-0.0425201,-0.0427745,-0.0429842,-0.0431483,-0.0432661,-0.0433369,-0.0433601,-0.0433352,-0.0432618,-0.0431395,-0.0429681,-0.0427475,-0.0424775,-0.0421584,-0.0417902,-0.0413733,-0.0409081,-0.0403952,-0.0398354,-0.0392294,-0.0385783,-0.0378831,-0.0371453,-0.0363661,-0.0355472,-0.0346903,-0.0337972,-0.03287,-0.0319109,-0.0309221,-0.029906,-0.0288653,-0.0278026,-0.0267207,-0.0256225,-0.024511,-0.0233894,-0.0222608,-0.0211284,-0.0199956,-0.0188657,-0.0177421,-0.0166281,-0.0155271,-0.0144425,-0.0133776,-0.0123357,-0.0113199,-0.0103333,-0.00937894,-0.00845968,-0.0075782,-0.00673706,-0.00593861,-0.00518501,-0.00447819,-0.00381986,-0.00321148,-0.00265428,-0.00214921,-0.001697,-0.00129809,-0.000952745,-0.000660999,-0.000422736,-0.000237731,-0.000105721,-2.64939e-05,0
0,-3.93709e-05,-0.000153421,-0.00033851,-0.000591333,-0.00090883,-0.00128812,-0.00172645,-0.00222113,-0.0027695,-0.00336894,-0.00401681,-0.00471045,-0.00544721,-0.00622438,-0.00703927,-0.00788917,-0.00877137,-0.00968314,-0.0106218,-0.0115847,-0.0125691,-0.0135724,-0.0145921,-0.0156256,-0.0166704,-0.0177241,-0.0187843,-0.0198487,-0.0209151,-0.0219811,-0.0230448,-0.0241039,-0.0251565,-0.0262006,-0.0272342,-0.0282556,-0.0292628,-0.0302541,-0.0312278,-0.0321821,-0.0331156,-0.0340264,-0.0349131,-0.0357742,-0.036608,-0.0374133,-0.0381884,-0.038932,-0.0396427,-0.0403192,-0.0409601,-0.0415642,-0.0421301,-0.0426567,-0.0431428,-0.0435872,-0.0439889,-0.0443466,-0.0446596,-0.0449267,-0.045147,-0.0453199,-0.0454444,-0.0455198,-0.0455456,-0.0455211,-0.045446,-0.0453199,-0.0451425,-0.0449136,-0.0446333,-0.0443015,-0.0439184,-0.0434845,-0.0430001,-0.0424658,-0.0418823,-0.0412505,-0.0405715,-0.0398464,-0.0390765,-0.0382633,-0.0374084,-0.0365136,-0.0355809,-0.0346122,-0.03361,-0.0325765,-0.0315142,-0.0304259,-0.0293143,-0.0281823,-0.027033,-0.0258695,-0.0246949,-0.0235127,-0.0223261,-0.0211386,-0.0199538,-0.018775,-0.0176058,-0.0164498,-0.0153104,-0.014191,-0.0130951,-0.0120261,-0.010987,-0.00998116,-0.00901143,-0.00808069,-0.00719161,-0.00634668,-0.0055482,-0.00479825,-0.00409867,-0.00345108,-0.00285687,-0.00231715,-0.00183284,-0.00140461,-0.00103291,-0.000718045,-0.000460159,-0.000259318,-0.000115573,-2.90384e-05,0
0,-4.23185e-05,-0.000164723,-0.000363079,-0.000633598,-0.000972762,-0.00137725,-0.00184391,-0.00236969,-0.0029516,-0.0035867,-0.00427211,-0.00500492,-0.00578226,-0.00660126,-0.00745904,-0.00835275,-0.00927954,-0.0102366,-0.0112211,-0.0122302,-0.0132612,-0.0143115,-0.0153783,-0.016459,-0.0175512,-0.0186521,-0.0197596,-0.020871,-0.0219842,-0.0230968,-0.0242066,-0.0253115,-0.0264095,-0.0274983,-0.0285762,-0.0296412,-0.0306913,-0.0317248,-0.0327399,-0.0337348,-0.0347079,-0.0356574,-0.0365818,-0.0374794,-0.0383488,-0.0391883,-0.0399966,-0.040772,-0.0415133,-0.0422189,-0.0428876,-0.0435179,-0.0441086,-0.0446584,-0.0451661,-0.0456304,-0.0460502,-0.0464245,-0.0467521,-0.0470321,-0.0472635,-0.0474455,-0.0475771,-0.0476577,-0.0476867,-0.0476634,-0.0475873,-0.0474582,-0.0472756,-0.0470394,-0.0467496,-0.0464062,-0.0460094,-0.0455596,-0.045057,-0.0445024,-0.0438965,-0.0432402,-0.0425345,-0.0417807,-0.0409799,-0.0401339,-0.0392443,-0.0383128,-0.0373416,-0.0363327,-0.0352884,-0.0342113,-0.033104,-0.0319691,-0.0308096,-0.0296285,-0.0284289,-0.0272141,-0.0259874,-0.0247523,-0.0235122,-0.0222707,-0.0210315,-0.0197981,-0.0185743,-0.0173636,-0.0161698,-0.0149963,-0.0138469,-0.0127248,-0.0116336,-0.0105764,-0.00955648,-0.00857669,-0.0076399,-0.00674873,-0.00590562,-0.00511281,-0.00437228,-0.00368582,-0.00305497,-0.00248103,-0.00196509,-0.00150803,-0.00111053,-0.000773106,-0.000496153,-0.000280001,-0.000124969,-3.14508e-05,0
0,-4.51522e-05,-0.000175615,-0.000386805,-0.000674488,-0.00103471,-0.00146376,-0.00195807,-0.00251425,-0.003129,-0.00379907,-0.00452131,-0.00529258,-0.00610979,-0.00696988,-0.00786982,-0.00880658,-0.00977718,-0.0107787,-0.0118081,-0.0128627,-0.0139395,-0.0150357,-0.0161487,-0.0172757,-0.0184141,-0.0195613,-0.0207148,-0.0218722,-0.0230311,-0.0241891,-0.025344,-0.0264936,-0.0276358,-0.0287684,-0.0298894,-0.0309969,-0.032089,-0.0331636,-0.0342191,-0.0352536,-0.0362654,-0.0372527,-0.0382139,-0.0391474,-0.0400515,-0.0409247,-0.0417654,-0.0425722,-0.0433435,-0.0440779,-0.0447739,-0.0454303,-0.0460456,-0.0466185,-0.0471477,-0.047632,-0.0480702,-0.0484612,-0.0488038,-0.049097,-0.0493399,-0.0495314,-0.0496708,-0.0497572,-0.04979,-0.0497686,-0.0496925,-0.0495612,-0.0493744,-0.0491319,-0.0488336,-0.0484797,-0.0480702,-0.0476055,-0.0470859,-0.0465122,-0.0458851,-0.0452053,-0.0444741,-0.0436926,-0.0428623,-0.0419846,-0.0410613,-0.0400942,-0.0390855,-0.0380373,-0.0369521,-0.0358323,-0.0346807,-0.0335001,-0.0322935,-0.031064,-0.0298148,-0.0285494,-0.0272711,-0.0259836,-0.0246905,-0.0233954,-0.0221021,-0.0208144,-0.0195362,-0.0182711,-0.017023,-0.0157957,-0.0145927,-0.0134178,-0.0122745,-0.0111661,-0.0100959,-0.00906717,-0.00808275,-0.00714545,-0.00625786,-0.00542235,-0.0046411,-0.00391603,-0.00324886,-0.00264108,-0.00209395,-0.00160854,-0.00118574,-0.00082629,-0.000530802,-0.000299835,-0.000133941,-3.37401e-05,0
0,-4.78787e-05,-0.000186121,-0.00040973,-0.00071406,-0.00109476,-0.00154771,-0.00206902,-0.00265492,-0.00330179,-0.00400613,-0.00476449,-0.00557352,-0.00642989,-0.00733037,-0.00827173,-0.00925081,-0.0102645,-0.0113097,-0.0123833,-0.0134825,-0.0146042,-0.0157456,-0.0169038,-0.0180762,-0.0192599,-0.0204524,-0.0216511,-0.0228535,-0.0240571,-0.0252596,-0.0264586,-0.027652,-0.0288374,-0.0300127,-0.031176,-0.0323251,-0.0334581,-0.034573,-0.0356681,-0.0367414,-0.0377911,-0.0388155,-0.0398129,-0.0407816,-0.0417199,-0.0426263,-0.0434991,-0.0443367,-0.0451378,-0.0459007,-0.0466239,-0.0473062,-0.047946,-0.0485421,-0.049093,-0.0495975,-0.0500543,-0.0504623,-0.0508203,-0.0511272,-0.051382,-0.0515838,-0.0517316,-0.0518246,-0.0518621,-0.0518434,-0.051768,-0.0516355,-0.0514454,-0.0511977,-0.050892,-0.0505286,-0.0501075,-0.0496291,-0.0490937,-0.048502,-0.0478546,-0.0471526,-0.046397,-0.045589,-0.0447301,-0.0438217,-0.0428657,-0.0418641,-0.0408188,-0.0397323,-0.0386068,-0.0374452,-0.03625,-0.0350243,-0.0337712,-0.0324938,-0.0311956,-0.0298799,-0.0285504,-0.0272108,-0.0258648,-0.0245163,-0.0231691,-0.0218272,-0.0204945,-0.0191751,-0.0178727,-0.0165913,-0.0153348,-0.0141069,-0.0129113,-0.0117516,-0.0106312,-0.00955335,-0.00852124,-0.00753778,-0.00660572,-0.0057276,-0.00490574,-0.00414225,-0.00343901,-0.00279769,-0.00221973,-0.0017064,-0.00125876,-0.000877763,-0.000564222,-0.000318894,-0.000142526,-3.59186e-05,0
0,-5.0507e-05,-0.000196266,-0.000431902,-0.000752386,-0.00115299,-0.00162924,-0.00217687,-0.00279181,-0.00347014,-0.00420804,-0.00500183,-0.00584792,-0.00674276,-0.00768293,-0.00866502,-0.00968571,-0.0107417,-0.0118299,-0.012947,-0.01409,-0.0152559,-0.0164416,-0.0176444,-0.0188613,-0.0200896,-0.0213266,-0.0225696,-0.0238161,-0.0250636,-0.0263097,-0.027552,-0.0287882,-0.030016,-0.0312333,-0.032438,-0.0336279,-0.0348011,-0.0359557,-0.0370896,-0.038201,-0.039288,-0.040349,-0.041382,-0.0423854,-0.0433576,-0.0442967,-0.0452013,-0.0460697,-0.0469003,-0.0476916,-0.0484421,-0.0491503,-0.0498148,-0.0504341,-0.0510069,-0.0515319,-0.0520078,-0.0524333,-0.0528072,-0.0531284,-0.0533959,-0.0536086,-0.0537655,-0.0538659,-0.053909,-0.053894,-0.0538203,-0.0536876,-0.0534953,-0.0532434,-0.0529315,-0.0525597,-0.0521281,-0.0516371,-0.051087,-0.0504784,-0.049812,-0.0490888,-0.0483099,-0.0474764,-0.0465898,-0.0456518,-0.0446641,-0.0436287,-0.0425477,-0.0414235,-0.0402586,-0.0390557,-0.0378176,-0.0365473,-0.0352481,-0.0339232,-0.0325761,-0.0312105,-0.0298299,-0.0284382,-0.0270394,-0.0256374,-0.0242362,-0.0228399,-0.0214527,-0.0200785,-0.0187216,-0.0173859,-0.0160755,-0.0147943,-0.0135462,-0.0123348,-0.0111638,-0.0100367,-0.00895669,-0.0079269,-0.00695026,-0.00602946,-0.005167,-0.00436516,-0.003626,-0.00295135,-0.00234285,-0.00180193,-0.00132985,-0.000927725,-0.000596555,-0.000337267,-0.000150768,-3.79977e-05,0