-0,-0,-0,-0,-0,-0,-0,-0,-0,-0,-0,-0,-0,-0,-0,-0,-0,-0,-0,-0,-0,-0,-0,-0,-0,-0,-0,-0,-0,-0,-0,-0,-0,-0,-0,-0,-0,-0,-0,-0,-0,-0,-0,-0,-0,-0,-0,-0,-0,-0,-0,-0,-0,-0,-0,-0,-0,-0,-0,-0,-0,-0,-0,-0,-0,-0,-0,-0,-0,-0,-0,-0,-0,-0,-0,-0,-0,-0,-0,-0,-0,-0,-0,-0,-0,-0,-0,-0,-0,-0,-0,-0,-0,-0,-0,-0,-0,-0,-0,-0,-0,-0,-0,-0,-0,-0,-0,-0,-0,-0,-0,-0,-0,-0,-0,-0,-0,-0,-0,-0,-0,-0,-0,-0,-0,-0,-0,-0
-0,-4.46672e-06,-6.37398e-06,-5.71793e-06,-3.41972e-06,-2.02187e-07,3.47721e-06,7.34124e-06,1.12214e-05,1.50166e-05,1.86622e-05,2.21193e-05,2.5367e-05,2.83926e-05,3.11909e-05,3.37619e-05,3.61086e-05,3.82366e-05,4.01525e-05,4.18644e-05,4.33799e-05,4.47109e-05,4.58614e-05,4.68433e-05,4.76654e-05,4.83353e-05,4.8861e-05,4.92503e-05,4.95107e-05,4.96486e-05,4.96708e-05,4.95828e-05,4.93905e-05,4.90982e-05,4.87101e-05,4.82345e-05,4.76666e-05,4.70175e-05,4.6287e-05,4.54771e-05,4.45916e-05,4.36303e-05,4.25973e-05,4.14915e-05,4.03163e-05,3.90707e-05,3.77573e-05,3.63753e-05,3.49267e-05,3.34107e-05,3.18285e-05,3.01833e-05,2.84692e-05,2.66934e-05,2.48547e-05,2.29517e-05,2.09895e-05,1.89656e-05,1.6885e-05,1.47464e-05,1.25547e-05,1.03099e-05,8.01656e-06,5.67622e-06,3.29359e-06,8.71262e-07,-1.58558e-06,-4.07338e-06,-6.58636e-06,-9.11979e-06,-1.16694e-05,-1.42232e-05,-1.67834e-05,-1.93367e-05,-2.18782e-05,-2.44005e-05,-2.68948e-05,-2.93541e-05,-3.17688e-05,-3.41313e-05,-3.64317e-05,-3.86622e-05,-4.08123e-05,-4.28742e-05,-4.48373e-05,-4.66938e-05,-4.84331e-05,-5.00476e-05,-5.15272e-05,-5.28643e-05,-5.40497e-05,-5.50762e-05,-5.59354e-05,-5.66208e-05,-5.71249e-05,-5.74423e-05,-5.75664e-05,-5.74932e-05,-5.72172e-05,-5.67336e-05,-5.60488e-05,-5.51421e-05,-5.40244e-05,-5.26969e-05,-5.11529e-05,-4.93971e-05,-4.74276e-05,-4.5251e-05,-4.28675e-05,-4.02848e-05,-3.75061e-05,-3.45413e-05,-3.13975e-05,-2.80883e-05,-2.46264e-05,-2.10318e-05,-1.73271e-05,-1.3545e-05,-9.72717e-06,-5.93354e-06,-2.24742e-06,1.20725e-06,4.24588e-06,6.58284e-06,7.78308e-06,7.22879e-06,4.33127e-06,-0
-0,-1.28554e-05,-1.65009e-05,-1.301e-05,-4.69408e-06,6.6066e-06,1.95904e-05,3.33774e-05,4.73812e-05,6.12149e-05,7.46234e-05,8.74366e-05,9.95501e-05,0.000110901,0.000121453,0.000131191,0.000140118,0.000148242,0.000155583,0.000162164,0.000168011,0.000173155,0.000177625,0.000181447,0.000184658,0.000187285,0.000189357,0.000190901,0.000191945,0.000192513,0.000192629,0.000192316,0.000191592,0.000190479,0.00018899,0.000187146,0.000184957,0.000182434,0.000179594,0.000176444,0.000172991,0.000169246,0.000165213,0.000160899,0.000156308,0.000151446,0.000146314,0.000140919,0.000135261,0.000129344,0.000123169,0.000116743,0.000110066,0.000103139,9.59719e-05,8.85641e-05,8.09213e-05,7.30507e-05,6.49568e-05,5.6649e-05,4.81339e-05,3.94227e-05,3.05249e-05,2.14534e-05,1.2221e-05,2.84291e-06,-6.66525e-06,-1.62854e-05,-2.5999e-05,-3.57849e-05,-4.56227e-05,-5.54872e-05,-6.53503e-05,-7.51949e-05,-8.49849e-05,-9.46954e-05,-0.000104295,-0.000113754,-0.000123039,-0.000132117,-0.000140955,-0.000149518,-0.000157773,-0.000165683,-0.000173214,-0.000180331,-0.000187,-0.000193186,-0.000198856,-0.000203978,-0.000208519,-0.00021245,-0.000215741,-0.000218367,-0.0002203,-0.000221519,-0.000222002,-0.000221729,-0.000220685,-0.000218854,-0.000216232,-0.000212805,-0.000208558,-0.000203505,-0.000197643,-0.000190973,-0.000183505,-0.00017525,-0.000166225,-0.000156451,-0.000145955,-0.00013477,-0.000122937,-0.000110507,-9.75434e-05,-8.41257e-05,-7.03563e-05,-5.63667e-05,-4.23312e-05,-2.84822e-05,-1.51381e-05,-2.73878e-06,8.09788e-06,1.65067e-05,2.12997e-05,2.09664e-05,1.39822e-05,-0
-0,-2.09939e-05,-2.44906e-05,-1.53054e-05,2.59374e-06,2.61302e-05,5.30343e-05,8.16814e-05,0.000110928,0.000139977,0.000168282,0.000195465,0.000221276,0.000245555,0.000268208,0.000289182,0.000308464,0.000326063,0.000342005,0.000356331,0.000369088,0.000380335,0.000390127,0.000398527,0.000405592,0.000411388,0.000415973,0.000419404,0.000421737,0.000423024,0.000423317,0.000422661,0.0004211,0.000418674,0.00041542,0.000411374,0.000406564,0.000401019,0.00039476,0.000387816,0.000380203,0.000371936,0.000363034,0.000353508,0.000343371,0.00033263,0.000321298,0.00030938,0.000296885,0.00028382,0.00027019,0.000256006,0.000241272,0.000225997,0.00021019,0.000193862,0.000177024,0.000159688,0.000141871,0.000123588,0.00010486,8.57062e-05,6.61534e-05,4.62261e-05,2.59559e-05,5.37386e-06,-1.54832e-05,-3.65777e-05,-5.78667e-05,-7.9306e-05,-0.000100848,-0.000122439,-0.000144029,-0.000165552,-0.000186961,-0.000208184,-0.000229157,-0.000249815,-0.000270087,-0.000289901,-0.000309185,-0.000327866,-0.000345866,-0.000363113,-0.000379529,-0.00039504,-0.00040957,-0.000423048,-0.000435398,-0.000446554,-0.000456446,-0.000465009,-0.000472182,-0.000477906,-0.000482127,-0.000484795,-0.000485864,-0.000485296,-0.000483054,-0.000479109,-0.000473444,-0.000466035,-0.000456875,-0.000445954,-0.000433287,-0.000418886,-0.000402766,-0.00038496,-0.000365504,-0.000344453,-0.000321869,-0.000297833,-0.000272439,-0.00024581,-0.000218092,-0.000189472,-0.00016018,-0.000130515,-0.000100857,-7.1708e-05,-4.37254e-05,-1.779e-05,4.92331e-06,2.28498e-05,3.39544e-05,3.5714e-05,2.52911e-05,-0
-0,-2.59511e-05,-2.61584e-05,-7.92087e-06,2.31432e-05,6.27218e-05,0.000107565,0.000155265,0.000204062,0.000252686,0.00030023,0.000346051,0.000389707,0.000430899,0.000469442,0.000505227,0.000538206,0.000568374,0.000595762,0.000620423,0.000642427,0.000661859,0.00067881,0.000693373,0.00070565,0.000715734,0.00072373,0.000729729,0.000733824,0.000736102,0.000736648,0.00073554,0.000732852,0.000728653,0.000723003,0.000715966,0.00070759,0.000697924,0.000687012,0.000674889,0.000661596,0.000647159,0.000631605,0.000614959,0.000597241,0.000578471,0.000558664,0.000537837,0.000516002,0.000493175,0.000469366,0.000444594,0.000418867,0.000392204,0.000364622,0.000336137,0.000306774,0.000276555,0.000245505,0.000213658,0.000181046,0.000147708,0.000113687,7.90293e-05,4.37876e-05,8.01909e-06,-2.82144e-05,-6.48452e-05,-0.000101801,-0.000139003,-0.000176369,-0.000213808,-0.000251229,-0.000288532,-0.000325608,-0.000362362,-0.00039867,-0.000434421,-0.000469494,-0.000503766,-0.000537114,-0.000569408,-0.000600523,-0.000630326,-0.000658691,-0.000685486,-0.000710586,-0.000733863,-0.000755195,-0.000774462,-0.000791549,-0.000806343,-0.000818741,-0.000828642,-0.000835955,-0.000840594,-0.000842484,-0.000841556,-0.000837753,-0.000831024,-0.00082134,-0.000808666,-0.000792986,-0.000774307,-0.000752627,-0.000727983,-0.000700413,-0.000669972,-0.000636733,-0.000600793,-0.00056227,-0.00052131,-0.000478091,-0.000432832,-0.000385799,-0.000337323,-0.000287814,-0.000237785,-0.000187889,-0.000138956,-9.20552e-05,-4.85676e-05,-1.02804e-05,2.05098e-05,4.08932e-05,4.72726e-05,3.53383e-05,-0
-0,-2.58434e-05,-1.86092e-05,1.24949e-05,6.04036e-05,0.000119669,0.000186113,0.000256567,0.000328648,0.00040059,0.000471093,0.000539214,0.000604282,0.000665836,0.000723565,0.000777284,0.000826896,0.000872371,0.000913731,0.000951039,0.000984383,0.00101388,0.00103964,0.00106181,0.00108052,0.00109592,0.00110814,0.00111733,0.00112361,0.00112712,0.00112798,0.00112631,0.00112221,0.00111579,0.00110715,0.00109636,0.00108352,0.00106869,0.00105193,0.00103332,0.0010129,0.000990714,0.00096681,0.000941223,0.000913989,0.000885135,0.00085469,0.000822677,0.000789122,0.000754044,0.000717466,0.000679414,0.000639907,0.000598971,0.000556636,0.000512931,0.000467889,0.000421548,0.000373953,0.00032515,0.000275193,0.000224141,0.000172062,0.000119027,6.51187e-05,1.04226e-05,-4.49644e-05,-0.00010094,-0.000157392,-0.000214202,-0.000271242,-0.000328377,-0.000385466,-0.000442356,-0.000498894,-0.000554906,-0.000610237,-0.000664701,-0.000718119,-0.000770306,-0.000821073,-0.000870229,-0.000917577,-0.000962925,-0.00100608,-0.00104684,-0.00108501,-0.00112042,-0.00115286,-0.00118217,-0.00120817,-0.00123069,-0.00124956,-0.00126466,-0.00127583,-0.00128294,-0.0012859,-0.00128459,-0.00127892,-0.00126884,-0.00125428,-0.00123521,-0.00121161,-0.00118348,-0.00115085,-0.00111374,-0.00107224,-0.00102644,-0.000976455,-0.000922445,-0.000864594,-0.00080314,-0.000738363,-0.000670607,-0.00060029,-0.000527921,-0.000454125,-0.000379677,-0.000305535,-0.000232906,-0.000163302,-9.86317e-05,-4.13031e-05,5.6598e-06,3.8488e-05,5.25288e-05,4.20667e-05,-0
-0,-1.95369e-05,6.02245e-08,4.82611e-05,0.000116847,0.000199396,0.000290901,0.000387489,0.000486185,0.000584733,0.000681435,0.000775031,0.000864604,0.000949505,0.00102929,0.00110367,0.00117248,0.00123567,0.00129323,0.00134523,0.00139178,0.001433,0.00146906,0.00150012,0.00152636,0.00154798,0.00156516,0.00157808,0.00158693,0.00159187,0.00159308,0.00159072,0.00158493,0.00157585,0.00156363,0.00154837,0.00153019,0.0015092,0.00148547,0.00145911,0.00143017,0.00139873,0.00136486,0.0013286,0.00129,0.0012491,0.00120595,0.00116059,0.00111304,0.00106335,0.00101154,0.000957648,0.00090171,0.000843765,0.000783852,0.000722017,0.000658311,0.000592787,0.000525509,0.000456546,0.000385975,0.000313881,0.000240359,0.000165513,8.94574e-05,1.23169e-05,-6.57737e-05,-0.000144669,-0.00022421,-0.000304232,-0.000384554,-0.000464987,-0.00054533,-0.000625374,-0.000704897,-0.000783673,-0.000861455,-0.00093801,-0.00101308,-0.0010864,-0.00115771,-0.00122675,-0.00129324,-0.00135691,-0.0014175,-0.00147472,-0.00152831,-0.00157801,-0.00162356,-0.00166471,-0.00170123,-0.00173286,-0.00175941,-0.00178066,-0.00179642,-0.00180652,-0.00181079,-0.00180911,-0.00180136,-0.00178744,-0.00176728,-0.00174084,-0.00170808,-0.00166902,-0.0016237,-0.00157219,-0.00151457,-0.001451,-0.00138167,-0.00130678,-0.00122663,-0.00114155,-0.00105194,-0.000958305,-0.000861233,-0.000761443,-0.000659803,-0.000557374,-0.000455454,-0.00035564,-0.000259902,-0.000170679,-9.09814e-05,-2.45301e-05,2.41007e-05,4.92932e-05,4.4133e-05,-0
-0,-6.40298e-06,3.10202e-05,0.000100897,0.000194165,0.000303616,0.00042354,0.000549443,0.000677809,0.00080592,0.000931696,0.00105356,0.00117034,0.0012812,0.00138554,0.00148296,0.00157323,0.00165623,0.00173195,0.00180044,0.00186182,0.00191625,0.0019639,0.00200499,0.00203974,0.00206838,0.00209115,0.00210829,0.00212,0.00212654,0.0021281,0.0021249,0.00211713,0.00210497,0.00208859,0.00206816,0.00204381,0.00201568,0.0019839,0.00194857,0.0019098,0.00186767,0.00182227,0.00177368,0.00172195,0.00166715,0.00160933,0.00154855,0.00148485,0.00141828,0.00134889,0.00127673,0.00120185,0.00112429,0.00104412,0.000961402,0.0008762,0.000788591,0.000698664,0.000606509,0.000512234,0.000415952,0.000317793,0.000217897,0.000116416,1.35176e-05,-9.06175e-05,-0.000195795,-0.000301805,-0.000408424,-0.000515415,-0.000622524,-0.000729488,-0.000836026,-0.000941847,-0.00104665,-0.00115011,-0.00125191,-0.00135172,-0.00144919,-0.00154397,-0.00163572,-0.00172407,-0.00180867,-0.00188916,-0.00196518,-0.00203638,-0.00210241,-0.00216294,-0.00221763,-0.00226617,-0.00230825,-0.00234359,-0.00237192,-0.00239299,-0.00240657,-0.00241246,-0.00241047,-0.00240046,-0.00238231,-0.00235593,-0.00232126,-0.00227828,-0.002227,-0.00216749,-0.00209984,-0.0020242,-0.00194075,-0.00184976,-0.00175154,-0.00164646,-0.00153499,-0.00141767,-0.00129518,-0.0011683,-0.00103798,-0.000905342,-0.000771764,-0.000638889,-0.000508715,-0.000383665,-0.000266689,-0.000161372,-7.20749e-05,-4.09694e-06,3.61203e-05,4.07104e-05,-0
-0,1.386e-05,7.49123e-05,0.000171314,0.000293429,0.00043346,0.000585125,0.000743405,0.000904312,0.00106471,0.00122216,0.0013748,0.00152119,0.0016603,0.00179139,0.00191393,0.00202762,0.00213228,0.00222787,0.00231443,0.00239208,0.00246099,0.00252138,0.00257349,0.00261759,0.00265395,0.00268285,0.00270459,0.00271944,0.00272767,0.00272956,0.00272535,0.00271529,0.0026996,0.00267851,0.00265221,0.00262087,0.00258469,0.0025438,0.00249835,0.00244847,0.00239427,0.00233587,0.00227335,0.00220681,0.00213632,0.00206196,0.00198379,0.00190188,0.0018163,0.0017271,0.00163436,0.00153813,0.0014385,0.00133553,0.0012293,0.00111992,0.00100748,0.000892088,0.000773874,0.00065297,0.000529529,0.000403714,0.000275707,0.000145705,1.39227e-05,-0.000119408,-0.000254037,-0.000389698,-0.000526104,-0.000662951,-0.000799919,-0.000936668,-0.00107284,-0.00120807,-0.00134197,-0.00147414,-0.00160416,-0.00173161,-0.00185606,-0.00197707,-0.00209418,-0.00220695,-0.00231492,-0.00241764,-0.00251466,-0.00260553,-0.00268981,-0.00276709,-0.00283693,-0.00289894,-0.00295273,-0.00299796,-0.00303427,-0.00306135,-0.00307892,-0.00308672,-0.00308453,-0.00307217,-0.00304948,-0.00301637,-0.00297276,-0.00291863,-0.00285401,-0.00277898,-0.00269369,-0.00259832,-0.00249314,-0.00237847,-0.00225472,-0.0021224,-0.00198211,-0.00183454,-0.00168055,-0.00152115,-0.00135751,-0.00119105,-0.00102345,-0.000856717,-0.000693234,-0.000535865,-0.000388045,-0.000253886,-0.000138325,-4.72824e-05,1.21293e-05,3.1342e-05,-0
-0,4.13419e-05,0.000132012,0.00025997,0.000415233,0.000589587,0.000776318,0.000969978,0.00116618,0.00136143,0.00155297,0.00173864,0.0019168,0.00208622,0.00224599,0.0023955,0.00253433,0.00266226,0.00277921,0.00288521,0.00298037,0.00306489,0.00313901,0.00320299,0.00325715,0.00330182,0.00333731,0.00336398,0.00338214,0.00339213,0.00339427,0.00338886,0.00337619,0.00335654,0.00333017,0.00329732,0.00325821,0.00321306,0.00316206,0.00310537,0.00304316,0.00297558,0.00290275,0.0028248,0.00274183,0.00265395,0.00256125,0.00246382,0.00236175,0.0022551,0.00214397,0.00202845,0.00190861,0.00178454,0.00165635,0.00152415,0.00138804,0.00124815,0.00110463,0.000957639,0.000807341,0.000653922,0.000497594,0.000338582,0.000177131,1.351e-05,-0.000151994,-0.000319071,-0.000487388,-0.000656593,-0.000826307,-0.000996135,-0.00116566,-0.00133443,-0.00150201,-0.00166791,-0.00183163,-0.00199267,-0.00215051,-0.00230461,-0.00245443,-0.00259943,-0.00273903,-0.00287269,-0.00299985,-0.00311996,-0.00323246,-0.00333682,-0.00343253,-0.00351905,-0.00359592,-0.00366265,-0.00371881,-0.00376398,-0.00379778,-0.00381986,-0.00382992,-0.00382769,-0.00381293,-0.00378548,-0.00374522,-0.00369206,-0.00362599,-0.00354706,-0.00345537,-0.00335111,-0.00323453,-0.00310596,-0.00296582,-0.00281463,-0.00265301,-0.00248171,-0.00230162,-0.00211377,-0.00191939,-0.00171992,-0.00151706,-0.0013128,-0.00110949,-0.000909908,-0.000717329,-0.000535632,-0.00036941,-0.000224096,-0.00010613,-2.31386e-05,1.58183e-05,-0
-0,7.5998e-05,0.000202345,0.000366997,0.000559804,0.00077229,0.000997429,0.00122945,0.00146363,0.00169619,0.00192407,0.0021449,0.0023568,0.00255837,0.00274857,0.00292667,0.00309216,0.00324478,0.0033844,0.00351102,0.00362478,0.00372588,0.00381456,0.00389115,0.00395599,0.00400945,0.0040519,0.00408373,0.00410534,0.0041171,0.00411938,0.00411254,0.00409693,0.00407286,0.00404065,0.00400059,0.00395294,0.00389795,0.00383584,0.00376684,0.00369113,0.00360889,0.00352028,0.00342544,0.00332451,0.00321762,0.00310488,0.00298639,0.00286228,0.00273263,0.00259755,0.00245715,0.00231153,0.0021608,0.0020051,0.00184455,0.00167929,0.00150949,0.00133532,0.00115697,0.000974642,0.000788581,0.00059903,0.000406269,0.000210596,1.23352e-05,-0.000188163,-0.000390525,-0.000594346,-0.000799201,-0.00100463,-0.00121016,-0.00141529,-0.00161948,-0.00182218,-0.00202282,-0.00222081,-0.00241553,-0.00260636,-0.00279266,-0.00297376,-0.00314901,-0.00331775,-0.00347931,-0.00363301,-0.00377819,-0.00391421,-0.0040404,-0.00415616,-0.00426085,-0.00435391,-0.00443477,-0.0045029,-0.0045578,-0.00459903,-0.00462617,-0.00463886,-0.00463677,-0.00461965,-0.00458729,-0.00453955,-0.00447634,-0.00439767,-0.00430358,-0.00419423,-0.00406985,-0.00393074,-0.00377732,-0.00361011,-0.00342975,-0.00323699,-0.00303274,-0.00281806,-0.0025942,-0.00236262,-0.00212501,-0.00188335,-0.00163995,-0.00139749,-0.00115912,-0.000928507,-0.00070993,-0.000508403,-0.000329786,-0.000180928,-6.98419e-05,-5.89365e-06,-0
-0,0.000117699,0.000285767,0.000492293,0.000727099,0.000981573,0.00124849,0.00152183,0.00179665,0.00206889,0.0023353,0.00259326,0.00284074,0.00307617,0.00329837,0.00350651,0.00370003,0.00387858,0.00404201,0.00419031,0.0043236,0.00444209,0.00454607,0.00463587,0.00471189,0.00477454,0.00482423,0.00486142,0.00488654,0.00490002,0.0049023,0.00489378,0.00487486,0.00484592,0.00480732,0.00475938,0.00470242,0.00463674,0.00456259,0.00448023,0.00438989,0.00429177,0.00418607,0.00407296,0.0039526,0.00382514,0.00369073,0.00354949,0.00340155,0.00324704,0.00308609,0.00291882,0.00274537,0.00256586,0.00238046,0.00218932,0.00199262,0.00179055,0.00158332,0.00137116,0.00115432,0.000933078,0.000707737,0.000478621,0.000246092,1.05326e-05,-0.00022764,-0.00046798,-0.000710011,-0.000953226,-0.00119709,-0.00144102,-0.00168444,-0.00192672,-0.0021672,-0.0024052,-0.00264003,-0.00287097,-0.00309727,-0.00331817,-0.00353292,-0.00374072,-0.00394079,-0.00413236,-0.00431462,-0.0044868,-0.00464813,-0.00479786,-0.00493523,-0.00505954,-0.0051701,-0.00526625,-0.00534737,-0.00541289,-0.00546227,-0.00549503,-0.00551075,-0.00550906,-0.00548966,-0.0054523,-0.00539685,-0.00532319,-0.00523134,-0.00512139,-0.0049935,-0.00484796,-0.00468516,-0.0045056,-0.00430989,-0.0040988,-0.00387323,-0.00363425,-0.0033831,-0.00312125,-0.00285039,-0.00257248,-0.00228976,-0.00200485,-0.00172077,-0.00144099,-0.00116955,-0.000911092,-0.000670995,-0.000455468,-0.000271686,-0.000127922,-3.37169e-05,-0
-0,0.000166265,0.000382025,0.000635597,0.00091688,0.00121723,0.00152931,0.00184695,0.00216503,0.00247931,0.00278633,0.00308333,0.00336812,0.00363898,0.00389464,0.00413416,0.00435691,0.0045625,0.00475075,0.00492163,0.00507526,0.00521186,0.00533174,0.00543527,0.00552288,0.00559503,0.00565218,0.00569483,0.00572347,0.0057386,0.00574069,0.00573022,0.00570763,0.00567334,0.00562777,0.00557131,0.0055043,0.00542709,0.00533998,0.00524327,0.00513721,0.00502204,0.004898,0.00476528,0.00462408,0.00447458,0.00431694,0.00415131,0.00397786,0.00379673,0.00360807,0.00341204,0.00320879,0.00299849,0.00278131,0.00255746,0.00232713,0.00209056,0.00184798,0.00159968,0.00134596,0.00108712,0.00082354,0.000555595,0.0002837,8.31208e-06,-0.000270085,-0.000550971,-0.000833788,-0.00111795,-0.00140282,-0.00168774,-0.00197203,-0.00225494,-0.00253573,-0.0028136,-0.00308774,-0.00335732,-0.00362147,-0.00387932,-0.00412997,-0.00437252,-0.00460605,-0.00482967,-0.00504245,-0.00524348,-0.00543189,-0.00560679,-0.00576732,-0.00591266,-0.00604201,-0.00615461,-0.00624975,-0.00632677,-0.00638504,-0.00642402,-0.00644322,-0.00644222,-0.00642067,-0.00637831,-0.00631497,-0.00623055,-0.00612505,-0.00599861,-0.00585142,-0.00568383,-0.0054963,-0.00528942,-0.00506391,-0.00482067,-0.00456076,-0.0042854,-0.00399604,-0.00369435,-0.00338226,-0.00306197,-0.00273603,-0.00240732,-0.00207919,-0.00175542,-0.00144037,-0.00113902,-0.000857061,-0.000600985,-0.000378207,-0.000197177,-6.74935e-05,-0
-0,0.000221488,0.000490796,0.000796538,0.00112877,0.00147888,0.00183953,0.00220445,0.00256841,0.00292704,0.00327675,0.00361463,0.00393838,0.00424617,0.00453663,0.00480875,0.00506185,0.00529548,0.00550944,0.0057037,0.00587836,0.00603368,0.00616997,0.00628766,0.00638719,0.00646907,0.00653382,0.00658199,0.00661413,0.00663077,0.00663247,0.00661973,0.00659307,0.00655297,0.00649988,0.00643424,0.00635645,0.0062669,0.00616594,0.00605389,0.00593106,0.00579773,0.00565415,0.00550055,0.00533717,0.00516421,0.00498185,0.00479029,0.00458971,0.00438027,0.00416216,0.00393557,0.00370066,0.00345764,0.00320672,0.00294812,0.00268208,0.00240888,0.00212879,0.00184213,0.00154926,0.00125054,0.000946385,0.000637241,0.000323597,5.96178e-06,-0.000315096,-0.000638979,-0.000965048,-0.00129262,-0.00162098,-0.00194937,-0.00227698,-0.00260298,-0.00292651,-0.00324666,-0.00356249,-0.00387305,-0.00417735,-0.00447439,-0.00476314,-0.00504257,-0.00531163,-0.00556928,-0.00581448,-0.00604619,-0.0062634,-0.00646509,-0.00665029,-0.00681806,-0.00696749,-0.0070977,-0.0072079,-0.00729731,-0.00736524,-0.00741107,-0.00743423,-0.00743426,-0.00741076,-0.00736344,-0.00729212,-0.00719668,-0.00707716,-0.00693369,-0.00676654,-0.00657609,-0.00636289,-0.00612762,-0.00587113,-0.00559443,-0.00529874,-0.00498546,-0.00465624,-0.00431295,-0.00395775,-0.00359311,-0.00322182,-0.00284707,-0.00247247,-0.00210213,-0.0017407,-0.00139344,-0.00106629,-0.000766006,-0.000500161,-0.000277303,-0.000107025,-0
-0,0.000283142,0.000611718,0.000974679,0.00136229,0.00176607,0.00217868,0.00259386,0.00300632,0.0034116,0.00380602,0.00418659,0.0045509,0.00489705,0.0052236,0.00552947,0.00581392,0.00607651,0.00631698,0.00653532,0.00673163,0.00690618,0.00705933,0.0071915,0.00730321,0.00739499,0.00746744,0.00752113,0.00755668,0.00757468,0.00757573,0.00756041,0.00752928,0.00748287,0.0074217,0.00734624,0.00725697,0.00715429,0.00703861,0.00691029,0.00676968,0.0066171,0.00645282,0.00627714,0.00609028,0.00589251,0.00568402,0.00546505,0.00523579,0.00499646,0.00474724,0.00448836,0.00422002,0.00394246,0.00365591,0.00336063,0.00305691,0.00274504,0.00242537,0.00209825,0.00176407,0.00142327,0.00107632,0.000723725,0.000366036,3.84936e-06,-0.000362204,-0.000731436,-0.00110312,-0.00147649,-0.00185071,-0.00222493,-0.00259825,-0.00296971,-0.00333833,-0.00370308,-0.00406291,-0.00441673,-0.00476341,-0.00510183,-0.00543081,-0.0057492,-0.0060558,-0.00634945,-0.00662894,-0.00689311,-0.00714082,-0.00737091,-0.00758229,-0.00777389,-0.00794468,-0.00809369,-0.00821999,-0.00832272,-0.0084011,-0.00845443,-0.00848209,-0.00848353,-0.00845833,-0.00840616,-0.00832682,-0.0082202,-0.00808633,-0.00792539,-0.00773768,-0.00752365,-0.00728392,-0.00701928,-0.00673068,-0.0064193,-0.00608648,-0.00573382,-0.00536314,-0.00497654,-0.00457641,-0.00416546,-0.00374673,-0.0033237,-0.00290025,-0.00248076,-0.00207014,-0.00167391,-0.00129826,-0.000950089,-0.00063712,-0.000367942,-0.000152078,-0
-0,0.000350998,0.00074441,0.00116954,0.00161692,0.00207822,0.00254619,0.00301462,0.00347818,0.00393241,0.00437357,0.00479861,0.00520505,0.00559094,0.00595479,0.00629549,0.00661226,0.00690463,0.00717235,0.00741539,0.00763389,0.00782812,0.00799847,0.00814542,0.00826949,0.00837131,0.00845147,0.00851065,0.00854949,0.00856866,0.0085688,0.00855055,0.00851454,0.00846134,0.00839152,0.00830562,0.00820415,0.00808757,0.00795633,0.00781084,0.00765148,0.0074786,0.00729254,0.00709359,0.00688205,0.00665817,0.00642221,0.00617441,0.00591502,0.00564425,0.00536235,0.00506955,0.0047661,0.00445225,0.00412828,0.00379449,0.00345119,0.00309874,0.0027375,0.00236789,0.00199036,0.00160538,0.00121351,0.000815297,0.000411376,2.4115e-06,-0.000410872,-0.000827716,-0.00124729,-0.00166874,-0.00209112,-0.00251349,-0.00293481,-0.00335401,-0.00377001,-0.00418163,-0.0045877,-0.00498699,-0.00537824,-0.00576018,-0.0061315,-0.00649089,-0.00683703,-0.00716858,-0.00748422,-0.00778264,-0.00806254,-0.00832264,-0.00856171,-0.00877855,-0.00897201,-0.00914099,-0.00928447,-0.00940148,-0.00949115,-0.00955268,-0.00958539,-0.00958869,-0.00956209,-0.00950523,-0.0094179,-0.00929998,-0.00915151,-0.00897271,-0.0087639,-0.00852563,-0.00825859,-0.00796365,-0.00764191,-0.00729465,-0.00692341,-0.00652993,-0.00611625,-0.00568468,-0.00523781,-0.00477861,-0.00431037,-0.00383682,-0.0033621,-0.00289084,-0.00242821,-0.00197995,-0.00155243,-0.00115272,-0.000788611,-0.000468701,-0.000202418,-0
-0,0.00042483,0.000888481,0.00138064,0.0018921,0.00241474,0.00294145,0.00346609,0.00398338,0.00448884,0.00497875,0.00545001,0.00590013,0.00632712,0.00672946,0.00710602,0.00745601,0.00777894,0.00807458,0.00834291,0.00858407,0.00879836,0.00898622,0.00914816,0.00928475,0.00939666,0.00948455,0.00954913,0.00959112,0.00961123,0.00961017,0.00958864,0.00954731,0.00948683,0.00940781,0.00931085,0.0091965,0.00906527,0.00891766,0.00875412,0.00857508,0.00838092,0.00817201,0.00794869,0.00771127,0.00746006,0.00719534,0.00691739,0.00662646,0.00632281,0.00600672,0.00567845,0.00533827,0.00498649,0.0046234,0.00424934,0.00386467,0.00346978,0.0030651,0.00265107,0.00222821,0.00179706,0.00135821,0.000912313,0.000460053,2.181e-06,-0.000460502,-0.000927132,-0.0013968,-0.00186854,-0.00234132,-0.00281405,-0.00328561,-0.00375481,-0.0042204,-0.00468111,-0.00513562,-0.00558255,-0.00602052,-0.00644809,-0.00686383,-0.00726625,-0.00765389,-0.00802527,-0.00837892,-0.00871336,-0.00902715,-0.00931887,-0.00958716,-0.00983068,-0.0100481,-0.0102383,-0.0104001,-0.0105324,-0.0106342,-0.0107047,-0.010743,-0.0107487,-0.010721,-0.0106597,-0.0105645,-0.0104352,-0.0102719,-0.0100749,-0.00984454,-0.00958141,-0.0092863,-0.0089602,-0.00860429,-0.00822003,-0.00780909,-0.0073734,-0.00691519,-0.00643697,-0.00594156,-0.00543216,-0.00491231,-0.00438597,-0.00385754,-0.00333188,-0.00281439,-0.00231101,-0.00182827,-0.00137336,-0.000954135,-0.000579179,-0.000257799,-0
-0,0.000504418,0.00104355,0.00160746,0.00218724,0.00277501,0.00336381,0.00394762,0.00452123,0.00508022,0.00562088,0.00614012,0.00663544,0.00710487,0.00754686,0.00796028,0.00834435,0.0086986,0.00902278,0.00931691,0.00958116,0.00981587,0.0100215,0.0101986,0.0103478,0.0104698,0.0105654,0.0106353,0.0106802,0.0107011,0.0106985,0.0106733,0.0106263,0.010558,0.0104692,0.0103606,0.0102327,0.0100861,0.00992133,0.0097389,0.00953928,0.00932288,0.00909011,0.00884136,0.00857696,0.00829725,0.00800255,0.00769315,0.00736936,0.00703146,0.00667975,0.00631453,0.00593611,0.0055448,0.00514097,0.00472498,0.00429722,0.00385814,0.0034082,0.00294792,0.00247784,0.00199859,0.00151081,0.00101523,0.000512598,3.75752e-06,-0.000510407,-0.00102895,-0.00155084,-0.00207503,-0.00260036,-0.00312565,-0.00364963,-0.004171,-0.00468838,-0.00520036,-0.00570547,-0.0062022,-0.00668901,-0.00716432,-0.00762652,-0.008074,-0.00850513,-0.00891826,-0.00931176,-0.00968401,-0.0100334,-0.0103584,-0.0106575,-0.0109291,-0.0111719,-0.0113846,-0.0115658,-0.0117144,-0.0118292,-0.0119095,-0.0119542,-0.0119627,-0.0119344,-0.0118689,-0.0117658,-0.0116252,-0.011447,-0.0112315,-0.0109791,-0.0106906,-0.0103667,-0.0100086,-0.00961752,-0.00919513,-0.00874323,-0.00826394,-0.00775966,-0.00723311,-0.00668735,-0.00612577,-0.00555217,-0.00497075,-0.00438612,-0.00380339,-0.00322814,-0.00266651,-0.00212519,-0.00161145,-0.0011332,-0.00069898,-0.000317991,-0
-0,0.000589552,0.00120924,0.00184951,0.00250178,0.00315839,0.00381261,0.00445853,0.00509106,0.00570586,0.00629926,0.00686823,0.00741028,0.00792346,0.00840624,0.00885751,0.00927651,0.00966277,0.0100161,0.0103365,0.0106243,0.0108797,0.0111033,0.0112957,0.0114576,0.0115898,0.0116929,0.011768,0.0118157,0.011837,0.0118326,0.0118034,0.0117502,0.0116737,0.0115746,0.0114537,0.0113116,0.0111489,0.0109662,0.0107641,0.010543,0.0103035,0.0100459,0.00977072,0.00947828,0.00916896,0.00884311,0.00850107,0.00814315,0.00776969,0.00738101,0.00697743,0.00655931,0.00612699,0.00568087,0.00522135,0.00474887,0.00426391,0.00376699,0.00325868,0.00273959,0.00221038,0.00167179,0.00112459,0.000569633,7.83016e-06,-0.00055984,-0.00113233,-0.00170854,-0.00228727,-0.00286728,-0.00344725,-0.00402581,-0.0046015,-0.00517283,-0.00573823,-0.00629609,-0.00684476,-0.00738253,-0.00790767,-0.00841841,-0.00891297,-0.00938956,-0.00984638,-0.0102816,-0.0106935,-0.0110803,-0.0114402,-0.0117716,-0.0120729,-0.0123425,-0.0125789,-0.0127808,-0.0129467,-0.0130757,-0.0131665,-0.0132183,-0.0132302,-0.0132017,-0.0131323,-0.0130217,-0.0128697,-0.0126764,-0.0124422,-0.0121674,-0.0118529,-0.0114996,-0.0111086,-0.0106814,-0.0102198,-0.00972567,-0.00920137,-0.00864946,-0.00807289,-0.00747491,-0.00685915,-0.00622963,-0.00559076,-0.00494741,-0.00430488,-0.00366895,-0.00304593,-0.00244264,-0.00186646,-0.00132532,-0.000827729,-0.000382768,-0
-0,0.000680033,0.0013852,0.00210633,0.00283515,0.00356427,0.00428717,0.00499812,0.00569216,0.00636504,0.00701319,0.00763363,0.00822393,0.00878218,0.00930688,0.00979697,0.0102517,0.0106707,0.0110537,0.0114009,0.0117125,0.0119889,0.0122307,0.0124386,0.0126132,0.0127554,0.0128662,0.0129462,0.0129965,0.013018,0.0130115,0.0129779,0.012918,0.0128328,0.0127229,0.0125891,0.0124322,0.0122528,0.0120515,0.0118289,0.0115855,0.011322,0.0110387,0.0107361,0.0104146,0.0100746,0.00971648,0.00934064,0.00894741,0.00853714,0.0081102,0.00766694,0.00720773,0.00673298,0.00624309,0.00573853,0.00521976,0.00468733,0.00414178,0.00358375,0.00301389,0.00243296,0.00184172,0.00124105,0.000631871,1.51733e-05,-0.000607972,-0.00123642,-0.00186896,-0.0025043,-0.00314107,-0.00377783,-0.00441308,-0.00504523,-0.00567264,-0.0062936,-0.00690636,-0.00750909,-0.00809994,-0.00867701,-0.00923838,-0.00978207,-0.0103061,-0.0108086,-0.0112875,-0.0117409,-0.0121668,-0.0125634,-0.0129289,-0.0132613,-0.0135592,-0.0138207,-0.0140444,-0.0142289,-0.0143729,-0.0144753,-0.0145349,-0.014551,-0.0145228,-0.0144498,-0.0143318,-0.0141685,-0.0139601,-0.0137069,-0.0134094,-0.0130684,-0.0126849,-0.0122603,-0.011796,-0.011294,-0.0107564,-0.0101857,-0.00958455,-0.0089562,-0.0083041,-0.00763209,-0.00694441,-0.0062457,-0.00554103,-0.00483593,-0.00413635,-0.00344876,-0.00278013,-0.0021379,-0.00153006,-0.000965075,-0.000451932,-0
-0,0.000775673,0.00157109,0.00237745,0.00318681,0.00399205,0.00478686,0.00556573,0.00632383,0.00705707,0.00776196,0.00843561,0.00907569,0.00968031,0.0102481,0.010778,0.0112693,0.0117216,0.0121349,0.0125093,0.0128451,0.0131428,0.0134029,0.0136263,0.0138137,0.013966,0.0140842,0.0141691,0.0142217,0.0142431,0.0142341,0.0141957,0.0141289,0.0140344,0.0139132,0.0137661,0.0135937,0.0133969,0.0131762,0.0129324,0.012666,0.0123776,0.0120677,0.0117368,0.0113853,0.0110136,0.0106223,0.0102115,0.00978186,0.00933362,0.00886719,0.00838298,0.00788139,0.00736284,0.0068278,0.00627674,0.0057102,0.00512875,0.00453299,0.00392361,0.00330133,0.00266695,0.00202132,0.00136537,0.000700125,2.66485e-05,-0.000653892,-0.00134026,-0.00203112,-0.00272509,-0.00342067,-0.00411629,-0.00481032,-0.00550105,-0.00618667,-0.00686534,-0.00753514,-0.00819408,-0.00884015,-0.00947128,-0.0100854,-0.0106803,-0.0112539,-0.011804,-0.0123285,-0.0128253,-0.0132923,-0.0137273,-0.0141285,-0.0144937,-0.0148213,-0.0151094,-0.0153564,-0.0155606,-0.0157208,-0.0158356,-0.0159039,-0.0159248,-0.0158975,-0.0158214,-0.0156962,-0.0155218,-0.0152983,-0.0150259,-0.0147053,-0.0143373,-0.013923,-0.0134639,-0.0129616,-0.012418,-0.0118356,-0.0112169,-0.010565,-0.00988307,-0.00917489,-0.0084445,-0.00769636,-0.00693533,-0.00616669,-0.00539617,-0.00462992,-0.00387457,-0.00313718,-0.00242533,-0.00174701,-0.00111071,-0.000525294,-0