-0,-0.00069889,-0.00226909,-0.00393687,-0.0051738,-0.00567409,-0.00527652,-0.00390767,-0.00154717,0.00179282,0.00608128,0.0112732,0.0173179,0.0241596,0.0317413,0.0400046,0.0488924,0.0583478,0.0683165,0.0787453,0.0895837,0.100782,0.112297,0.12408,0.136093,0.148294,0.160648,0.173115,0.185667,0.198267,0.210888,0.223499,0.236076,0.24859,0.261018,0.273335,0.285521,0.297549,0.309406,0.321063,0.332508,0.343716,0.354673,0.365355,0.37575,0.385836,0.395598,0.405016,0.414077,0.422759,0.43105,0.438928,0.446383,0.45339,0.459943,0.466017,0.471602,0.476679,0.481237,0.485257,0.488728,0.491635,0.493966,0.495707,0.496849,0.49738,0.497292,0.496575,0.495222,0.493229,0.490589,0.487301,0.483364,0.478775,0.473541,0.467661,0.461146,0.453998,0.446234,0.437859,0.428895,0.419352,0.409255,0.39862,0.387475,0.375842,0.363754,0.351238,0.33833,0.325062,0.311475,0.297605,0.283496,0.26919,0.254733,0.24017,0.225552,0.210927,0.196346,0.18186,0.167525,0.153387,0.139513,0.125943,0.112743,0.0999574,0.087649,0.0758642,0.0646615,0.0540875,0.0441969,0.0350344,0.0266499,0.0190845,0.0123811,0.00657427,0.00169693,-0.00222791,-0.00518392,-0.00716931,-0.00819816,-0.008311,-0.00758487,-0.00615409,-0.00424079,-0.00220028,-0.000568565,-0
-0.00069889,-0.00087175,-0.00104493,-0.00117421,-0.0010281,-0.000396269,0.00086934,0.00285955,0.00562159,0.00917155,0.0135037,0.0185977,0.0244225,0.0309407,0.0381104,0.0458874,0.0542256,0.0630792,0.072402,0.082149,0.092276,0.10274,0.113501,0.124518,0.135753,0.14717,0.158734,0.170413,0.182173,0.193986,0.205822,0.217656,0.229458,0.241207,0.252876,0.264445,0.275889,0.28719,0.298324,0.309275,0.320022,0.330546,0.34083,0.350856,0.360605,0.370062,0.379209,0.38803,0.396509,0.404629,0.412375,0.41973,0.42668,0.43321,0.439303,0.444947,0.450124,0.454824,0.459031,0.462732,0.465915,0.468568,0.470679,0.472237,0.473233,0.473658,0.473503,0.472762,0.471428,0.469498,0.466967,0.463833,0.460097,0.455759,0.450821,0.445289,0.439168,0.432467,0.425194,0.417363,0.408987,0.400083,0.390666,0.38076,0.370384,0.359564,0.348326,0.336698,0.32471,0.312396,0.299789,0.286926,0.273844,0.260584,0.247185,0.233691,0.220145,0.206594,0.193081,0.179656,0.166364,0.153256,0.140377,0.12778,0.11551,0.103618,0.0921494,0.0811539,0.0706757,0.060761,0.0514519,0.0427903,0.0348137,0.0275581,0.0210541,0.0153283,0.0104003,0.00628225,0.00297541,0.000468084,-0.00126973,-0.00229146,-0.00268217,-0.00256748,-0.00212064,-0.00155537,-0.00106187,-0.000568565
-0.00227002,-0.00104582,0.000132861,0.00130928,0.00262666,0.004241,0.00628243,0.00884565,0.0119924,0.0157575,0.0201546,0.0251818,0.0308256,0.0370638,0.0438687,0.0512078,0.0590465,0.067348,0.0760749,0.0851893,0.0946538,0.104431,0.114485,0.12478,0.135282,0.145957,0.156775,0.167704,0.178714,0.189778,0.200868,0.211958,0.223024,0.234041,0.244987,0.255839,0.266577,0.277179,0.287627,0.2979,0.307981,0.317851,0.327493,0.336889,0.346023,0.354879,0.36344,0.37169,0.379615,0.387198,0.394426,0.401283,0.407754,0.413826,0.419485,0.424718,0.42951,0.43385,0.437726,0.441124,0.444035,0.446447,0.44835,0.449735,0.450594,0.450918,0.450702,0.449938,0.448623,0.446753,0.444325,0.441338,0.437793,0.433691,0.429036,0.423832,0.418085,0.411804,0.404998,0.397679,0.389861,0.381557,0.372786,0.363566,0.353917,0.343863,0.333428,0.322637,0.31152,0.300105,0.288424,0.27651,0.264398,0.252123,0.239724,0.227238,0.214705,0.202166,0.189662,0.177236,0.164931,0.15279,0.140855,0.129171,0.117781,0.106728,0.0960527,0.0857972,0.0760016,0.0667038,0.0579403,0.0497448,0.0421483,0.0351777,0.0288559,0.0231995,0.018219,0.0139156,0.0102802,0.00729037,0.00490678,0.0030698,0.0016956,0.000674102,-0.000127043,-0.000842654,-0.00155704,-0.0021977
-0.00394276,-0.00117699,0.00131051,0.00364899,0.00598132,0.00844776,0.0111701,0.0142446,0.0177416,0.0217085,0.0261734,0.0311488,0.0366351,0.0426235,0.0490979,0.0560372,0.0634161,0.0712069,0.0793798,0.087904,0.0967479,0.10588,0.115268,0.124882,0.134691,0.144664,0.154773,0.16499,0.175286,0.185637,0.196015,0.206397,0.216759,0.227079,0.237333,0.247501,0.257563,0.267498,0.277288,0.286914,0.296358,0.305603,0.314631,0.323427,0.331973,0.340255,0.348256,0.355963,0.363359,0.370432,0.377166,0.383547,0.389564,0.395202,0.400448,0.405291,0.409717,0.413717,0.417278,0.42039,0.423044,0.425229,0.426936,0.428159,0.428889,0.42912,0.428846,0.428063,0.426767,0.424955,0.422627,0.41978,0.416418,0.412541,0.408154,0.403262,0.39787,0.391988,0.385625,0.378791,0.371499,0.363765,0.355604,0.347033,0.338072,0.328742,0.319065,0.309066,0.298771,0.288205,0.277399,0.266382,0.255186,0.243842,0.232386,0.220852,0.209275,0.197693,0.186142,0.17466,0.163286,0.152058,0.141014,0.130193,0.119633,0.109371,0.0994438,0.0898866,0.0807335,0.0720167,0.063766,0.0560087,0.0487686,0.0420655,0.0359142,0.0303238,0.025296,0.0208239,0.01689,0.0134643,0.0105017,0.00794008,0.00569854,0.00367843,0.00176882,-0.000139598,-0.00212974,-0.00423418
-0.00519282,-0.00103307,0.00263442,0.00599282,0.00920059,0.0123982,0.015706,0.0192224,0.0230235,0.0271656,0.0316872,0.0366121,0.0419519,0.0477087,0.0538767,0.060444,0.0673943,0.0747076,0.0823612,0.0903306,0.0985902,0.107113,0.115873,0.124842,0.133993,0.143299,0.152734,0.162273,0.17189,0.18156,0.19126,0.200966,0.210656,0.220308,0.229901,0.239416,0.248831,0.258129,0.26729,0.276297,0.285132,0.293779,0.302222,0.310443,0.318428,0.326162,0.33363,0.340817,0.347711,0.354296,0.36056,0.366491,0.372074,0.3773,0.382154,0.386628,0.390708,0.394385,0.39765,0.400492,0.402903,0.404874,0.406399,0.407469,0.408079,0.408224,0.407898,0.407099,0.405823,0.40407,0.401837,0.399127,0.39594,0.392278,0.388148,0.383552,0.378499,0.372996,0.367053,0.360679,0.353889,0.346694,0.339111,0.331155,0.322846,0.314201,0.305243,0.295993,0.286474,0.276712,0.266733,0.256564,0.246234,0.235771,0.225207,0.214573,0.2039,0.193222,0.182571,0.171982,0.161488,0.151123,0.140921,0.130916,0.12114,0.111626,0.102405,0.0935077,0.0849619,0.0767942,0.0690286,0.061686,0.054784,0.0483358,0.0423495,0.0368271,0.0317636,0.0271451,0.022948,0.0191367,0.0156624,0.0124617,0.00945596,0.0065523,0.00364724,0.000632982,-0.00259648,-0.00614883
-0.00571394,-0.000401824,0.00426429,0.00848597,0.0124306,0.0162409,0.0200378,0.0239216,0.0279728,0.0322537,0.0368105,0.0416755,0.0468694,0.052403,0.058279,0.0644938,0.0710385,0.0779002,0.0850625,0.0925069,0.100213,0.108158,0.11632,0.124676,0.133202,0.141873,0.150666,0.159559,0.168526,0.177547,0.186598,0.195658,0.204705,0.213719,0.222681,0.231569,0.240367,0.249054,0.257614,0.266029,0.274283,0.282358,0.290241,0.297914,0.305363,0.312574,0.319533,0.326226,0.33264,0.338762,0.34458,0.350081,0.355254,0.360088,0.364572,0.368695,0.372448,0.375821,0.378806,0.381393,0.383576,0.385347,0.3867,0.387629,0.388128,0.388194,0.387822,0.387011,0.385758,0.384063,0.381925,0.379346,0.376328,0.372874,0.368989,0.364678,0.359948,0.354806,0.349263,0.343328,0.337014,0.330332,0.323298,0.315927,0.308235,0.30024,0.291963,0.283422,0.27464,0.26564,0.256444,0.247078,0.237567,0.227938,0.218218,0.208435,0.198618,0.188795,0.178997,0.169252,0.159591,0.150043,0.140638,0.131405,0.122371,0.113566,0.105015,0.0967424,0.0887726,0.0811263,0.073822,0.066875,0.0602973,0.0540961,0.0482737,0.0428263,0.0377429,0.0330045,0.0285825,0.0244375,0.0205181,0.01676,0.0130857,0.0094047,0.00561484,0.00160365,-0.00275289,-0.0076006
-0.00534214,0.000868793,0.00633521,0.0112557,0.0157973,0.0201021,0.0242909,0.0284646,0.0327064,0.0370826,0.0416451,0.0464326,0.0514727,0.0567832,0.0623739,0.0682482,0.0744035,0.080833,0.0875261,0.0944693,0.101647,0.109042,0.116634,0.124405,0.132333,0.140397,0.148578,0.156852,0.165199,0.173598,0.182029,0.19047,0.198903,0.207306,0.215662,0.223952,0.232158,0.240261,0.248246,0.256095,0.263792,0.271322,0.278669,0.285818,0.292757,0.299469,0.305943,0.312165,0.318122,0.323804,0.329197,0.33429,0.339074,0.343537,0.347669,0.351461,0.354905,0.357991,0.360713,0.363061,0.365031,0.366615,0.367808,0.368606,0.369003,0.368998,0.368586,0.367767,0.36654,0.364903,0.362859,0.360409,0.357555,0.354301,0.350652,0.346614,0.342194,0.337399,0.332238,0.326721,0.320861,0.314668,0.308156,0.30134,0.294236,0.286859,0.279228,0.271361,0.263278,0.255,0.246547,0.237942,0.229208,0.220369,0.211449,0.202473,0.193467,0.184455,0.175464,0.166519,0.157648,0.148874,0.140224,0.131723,0.123394,0.115261,0.107346,0.0996679,0.0922465,0.0850975,0.0782346,0.071668,0.0654045,0.0594463,0.0537905,0.0484285,0.0433446,0.0385155,0.0339088,0.0294825,0.0251833,0.0209465,0.0166953,0.0123403,0.00777946,0.00289749,-0.0024381,-0.00838406
-0.00399801,0.00287626,0.0089484,0.0144046,0.019405,0.0240878,0.0285711,0.0329555,0.0373248,0.0417483,0.0462813,0.0509672,0.0558388,0.0609197,0.0662253,0.0717646,0.0775406,0.0835517,0.0897923,0.0962535,0.102924,0.10979,0.116836,0.124046,0.131402,0.138885,0.146478,0.15416,0.161913,0.169716,0.177552,0.185401,0.193244,0.201063,0.208839,0.216556,0.224195,0.231739,0.239173,0.24648,0.253645,0.260653,0.267489,0.274139,0.280589,0.286826,0.292837,0.298611,0.304134,0.309396,0.314386,0.319093,0.323507,0.327619,0.331419,0.334899,0.338051,0.340868,0.343342,0.345466,0.347236,0.348646,0.349692,0.350369,0.350674,0.350605,0.35016,0.349338,0.348139,0.346563,0.344612,0.342288,0.339594,0.336535,0.333115,0.32934,0.325217,0.320754,0.315959,0.310843,0.305416,0.29969,0.293677,0.287391,0.280846,0.274057,0.267041,0.259815,0.252396,0.244803,0.237056,0.229174,0.221178,0.213089,0.204928,0.196718,0.18848,0.180238,0.172013,0.163828,0.155706,0.147668,0.139735,0.13193,0.124271,0.116778,0.109468,0.102357,0.0954598,0.0887875,0.0823494,0.0761512,0.0701952,0.064479,0.0589956,0.0537322,0.0486693,0.0437801,0.0390298,0.0343742,0.0297591,0.0251199,0.0203805,0.0154529,0.0102364,0.00461623,-0.00153978,-0.00838646
-0.00165063,0.00567678,0.012174,0.0180108,0.0233371,0.0282842,0.0329664,0.0374819,0.0419143,0.0463337,0.0507979,0.0553535,0.060037,0.0648763,0.0698915,0.075096,0.0804977,0.0860992,0.0918994,0.0978932,0.104073,0.110429,0.116949,0.123619,0.130424,0.137349,0.144377,0.151491,0.158672,0.165905,0.17317,0.18045,0.187728,0.194985,0.202206,0.209373,0.216469,0.223478,0.230385,0.237173,0.243829,0.250338,0.256686,0.262858,0.268843,0.274627,0.280198,0.285544,0.290655,0.295519,0.300126,0.304466,0.308531,0.31231,0.315797,0.318982,0.32186,0.324423,0.326665,0.328581,0.330165,0.331414,0.332323,0.33289,0.333112,0.332987,0.332515,0.331695,0.330528,0.329014,0.327157,0.324958,0.322421,0.319551,0.316353,0.312833,0.308997,0.304854,0.300412,0.29568,0.290668,0.285388,0.279852,0.274071,0.26806,0.261832,0.255403,0.248786,0.242,0.23506,0.227984,0.22079,0.213495,0.206119,0.198681,0.191198,0.183692,0.176181,0.168684,0.161222,0.153812,0.146473,0.139224,0.132081,0.12506,0.118178,0.111446,0.104878,0.0984842,0.092271,0.0862441,0.0804052,0.0747525,0.0692801,0.063977,0.0588271,0.053808,0.0488904,0.0440373,0.0392035,0.0343346,0.0293664,0.0242242,0.0188224,0.0130631,0.00683541,1.2408e-05,-0.00755025
0.00170072,0.00929802,0.0160569,0.0221306,0.0276574,0.0327605,0.0375487,0.042117,0.0465475,0.0509101,0.0552636,0.0596566,0.0641284,0.0687101,0.0734253,0.0782911,0.083319,0.0885156,0.0938832,0.0994206,0.105123,0.110984,0.116994,0.123142,0.129416,0.135802,0.142286,0.148852,0.155484,0.162167,0.168883,0.175617,0.182352,0.189071,0.195758,0.202397,0.208973,0.215469,0.221871,0.228164,0.234333,0.240365,0.246246,0.251963,0.257503,0.262855,0.268007,0.272947,0.277665,0.282151,0.286395,0.290388,0.294122,0.297588,0.300779,0.303687,0.306307,0.308633,0.310658,0.312379,0.313791,0.314891,0.315675,0.316142,0.31629,0.316118,0.315626,0.314813,0.313682,0.312233,0.31047,0.308396,0.306014,0.303329,0.300347,0.297074,0.293516,0.289682,0.285579,0.281216,0.276604,0.271753,0.266673,0.261377,0.255876,0.250184,0.244315,0.238281,0.232098,0.225781,0.219345,0.212806,0.20618,0.199483,0.192731,0.185942,0.179132,0.172318,0.165515,0.15874,0.152009,0.145337,0.138739,0.132229,0.125818,0.11952,0.113343,0.107297,0.101387,0.095618,0.0899912,0.0845048,0.0791537,0.0739284,0.0688152,0.063795,0.0588432,0.0539286,0.0490129,0.0440505,0.0389871,0.0337598,0.0282962,0.0225137,0.0163188,0.00960653,0.00225871,-0.00585729
0.00604027,0.0137482,0.020623,0.0268026,0.0324135,0.0375704,0.042376,0.0469212,0.0512856,0.055538,0.0597375,0.0639336,0.0681674,0.0724722,0.0768742,0.0813936,0.0860449,0.0908376,0.0957773,0.100865,0.106101,0.111479,0.116993,0.122634,0.128393,0.134258,0.140216,0.146253,0.152355,0.158508,0.164696,0.170904,0.177117,0.183318,0.189493,0.195626,0.201702,0.207706,0.213624,0.219442,0.225146,0.230722,0.236157,0.241439,0.246556,0.251496,0.256249,0.260803,0.265148,0.269276,0.273176,0.276841,0.280262,0.283432,0.286344,0.288992,0.291371,0.293474,0.295297,0.296837,0.29809,0.299053,0.299724,0.300102,0.300185,0.299973,0.299467,0.298668,0.297576,0.296196,0.294528,0.292578,0.29035,0.287847,0.285076,0.282044,0.278756,0.275221,0.271446,0.26744,0.263213,0.258773,0.254132,0.249301,0.24429,0.239112,0.233778,0.228302,0.222696,0.216974,0.211149,0.205236,0.199248,0.193199,0.187103,0.180976,0.17483,0.16868,0.162539,0.156421,0.150339,0.144304,0.138329,0.132423,0.126598,0.120859,0.115216,0.109672,0.104231,0.0988937,0.0936581,0.0885195,0.0834696,0.0784965,0.0735837,0.06871,0.063849,0.0589681,0.0540287,0.0489848,0.0437833,0.0383628,0.0326538,0.0265777,0.0200464,0.012962,0.00521596,-0.0033101
0.0113427,0.0190223,0.0258839,0.0320509,0.0376392,0.0427548,0.047494,0.0519432,0.0561789,0.0602685,0.0642702,0.0682337,0.0722013,0.0762075,0.0802808,0.0844433,0.088712,0.093099,0.0976122,0.102256,0.107031,0.111935,0.116964,0.122112,0.12737,0.132729,0.138177,0.143702,0.149292,0.154933,0.160612,0.166313,0.172022,0.177726,0.183408,0.189055,0.194651,0.200184,0.205638,0.211001,0.216259,0.221399,0.226409,0.231276,0.235989,0.240537,0.24491,0.249097,0.253089,0.256876,0.260451,0.263805,0.266931,0.269823,0.272474,0.274877,0.27703,0.278926,0.280562,0.281934,0.283041,0.283879,0.284448,0.284746,0.284773,0.28453,0.284017,0.283236,0.282189,0.28088,0.27931,0.277485,0.275408,0.273086,0.270523,0.267725,0.264701,0.261456,0.257999,0.254339,0.250483,0.246441,0.242222,0.237838,0.233298,0.228613,0.223794,0.218852,0.213799,0.208647,0.203408,0.198093,0.192715,0.187286,0.181818,0.176323,0.170813,0.165298,0.15979,0.154301,0.148839,0.143415,0.138036,0.132712,0.127447,0.122249,0.117119,0.112062,0.107076,0.102159,0.0973076,0.0925135,0.087766,0.0830509,0.0783495,0.0736391,0.0688919,0.0640745,0.059148,0.0540672,0.04878,0.0432275,0.0373433,0.0310531,0.0242751,0.0169189,0.00888627,7.07638e-05
0.0175757,0.0251075,0.0318412,0.0378894,0.0433575,0.0483438,0.052938,0.0572221,0.0612691,0.0651441,0.0689043,0.0725992,0.0762711,0.0799558,0.0836826,0.0874757,0.0913536,0.0953305,0.0994164,0.103617,0.107937,0.112374,0.116928,0.121592,0.126361,0.131227,0.13618,0.141208,0.146302,0.151448,0.156634,0.161846,0.167071,0.172294,0.177502,0.182681,0.187817,0.192897,0.197907,0.202834,0.207665,0.212388,0.216991,0.221463,0.225791,0.229966,0.233977,0.237816,0.241472,0.244938,0.248205,0.251266,0.254114,0.256744,0.259148,0.261324,0.263265,0.264968,0.26643,0.267649,0.268621,0.269347,0.269824,0.270052,0.270033,0.269766,0.269253,0.268497,0.2675,0.266264,0.264795,0.263095,0.261171,0.259026,0.256668,0.254102,0.251334,0.248373,0.245225,0.2419,0.238403,0.234746,0.230936,0.226983,0.222897,0.218687,0.214362,0.209935,0.205413,0.200808,0.196131,0.19139,0.186598,0.181763,0.176897,0.172008,0.167106,0.1622,0.1573,0.152413,0.147547,0.142708,0.137904,0.133138,0.128414,0.123736,0.119104,0.114518,0.109975,0.105471,0.100998,0.0965462,0.0921032,0.0876524,0.0831737,0.078643,0.0740315,0.0693056,0.0644266,0.05935,0.0540256,0.0483968,0.0424008,0.0359683,0.0290233,0.0214834,0.0132597,0.00425899
0.0247076,0.0319846,0.0384895,0.0443233,0.0495828,0.0543587,0.0587349,0.0627886,0.0665894,0.0702,0.073676,0.0770661,0.0804125,0.0837513,0.0871128,0.0905221,0.0939992,0.0975597,0.101215,0.104974,0.10884,0.112816,0.1169,0.12109,0.12538,0.129765,0.134234,0.13878,0.143392,0.148059,0.152767,0.157506,0.162263,0.167023,0.171774,0.176503,0.181197,0.185842,0.190425,0.194935,0.199358,0.203682,0.207897,0.21199,0.215952,0.219772,0.22344,0.226947,0.230285,0.233446,0.236422,0.239207,0.241794,0.244177,0.246352,0.248314,0.250059,0.251583,0.252885,0.253962,0.254813,0.255437,0.255833,0.256001,0.255944,0.255662,0.255156,0.25443,0.253487,0.25233,0.250963,0.249391,0.247619,0.245651,0.243495,0.241156,0.238641,0.235957,0.233111,0.230112,0.226965,0.223681,0.220267,0.216731,0.213083,0.209332,0.205485,0.201552,0.197542,0.193464,0.189327,0.185139,0.18091,0.176646,0.172357,0.168051,0.163734,0.159414,0.155097,0.15079,0.146496,0.142222,0.13797,0.133743,0.129542,0.125368,0.121219,0.117092,0.112982,0.108882,0.104783,0.100673,0.0965365,0.0923567,0.0881116,0.0837762,0.0793212,0.0747129,0.0699131,0.0648784,0.0595605,0.0539056,0.0478547,0.0413431,0.0343009,0.0266531,0.0183205,0.00921916
0.0327013,0.0396324,0.0458184,0.0513522,0.0563227,0.060814,0.0649043,0.0686665,0.0721666,0.0754649,0.0786151,0.0816648,0.0846558,0.0876241,0.0906004,0.0936104,0.0966752,0.0998115,0.103032,0.106347,0.109761,0.113278,0.116898,0.12062,0.124441,0.128353,0.132351,0.136426,0.140569,0.144769,0.149016,0.153297,0.1576,0.161914,0.166224,0.17052,0.174788,0.179015,0.183189,0.187298,0.19133,0.195273,0.199117,0.20285,0.206462,0.209944,0.213286,0.21648,0.219516,0.222389,0.225091,0.227615,0.229956,0.232109,0.234069,0.235831,0.237394,0.238754,0.239908,0.240856,0.241597,0.24213,0.242455,0.242574,0.242487,0.242197,0.241706,0.241017,0.240133,0.239058,0.237797,0.236354,0.234734,0.232944,0.230988,0.228874,0.226607,0.224195,0.221645,0.218963,0.216158,0.213237,0.210207,0.207077,0.203854,0.200546,0.197161,0.193707,0.190192,0.186622,0.183006,0.179351,0.175664,0.171951,0.168219,0.164474,0.16072,0.156964,0.15321,0.149461,0.145721,0.141991,0.138273,0.134567,0.130873,0.127188,0.123508,0.119829,0.116143,0.112441,0.108713,0.104943,0.101117,0.0972147,0.0932137,0.0890882,0.0848087,0.0803418,0.0756499,0.070691,0.0654188,0.0597824,0.0537264,0.0471908,0.0401115,0.0324207,0.0240469,0.0149173
0.0415245,0.048027,0.0538142,0.0589711,0.0635798,0.0677183,0.0714601,0.0748736,0.0780218,0.0809621,0.0837463,0.086421,0.0890268,0.0915997,0.0941704,0.0967649,0.0994049,0.102108,0.104888,0.107755,0.110717,0.113777,0.116937,0.120197,0.123554,0.127003,0.130539,0.134154,0.13784,0.141586,0.145383,0.14922,0.153085,0.156967,0.160852,0.16473,0.168588,0.172413,0.176195,0.17992,0.183577,0.187156,0.190645,0.194034,0.197314,0.200474,0.203506,0.206402,0.209154,0.211755,0.214198,0.216477,0.218587,0.220524,0.222283,0.223861,0.225255,0.226463,0.227483,0.228314,0.228956,0.229409,0.229674,0.229752,0.229644,0.229354,0.228884,0.228238,0.227418,0.22643,0.225278,0.223966,0.222501,0.220887,0.219132,0.21724,0.215219,0.213074,0.210814,0.208444,0.205972,0.203405,0.20075,0.198014,0.195204,0.192328,0.189391,0.186401,0.183365,0.180288,0.177176,0.174036,0.170874,0.167693,0.164499,0.161295,0.158087,0.154876,0.151665,0.148456,0.14525,0.142047,0.138847,0.135647,0.132445,0.129236,0.126014,0.122773,0.119504,0.116195,0.112834,0.109405,0.105892,0.102273,0.0985257,0.0946235,0.0905369,0.0862327,0.0816743,0.0768212,0.0716291,0.06605,0.060032,0.0535196,0.0464542,0.0387742,0.0304161,0.0213143
0.0511427,0.0571446,0.0624615,0.0671721,0.0713527,0.0750762,0.0784115,0.0814231,0.084171,0.0867099,0.0890898,0.0913557,0.0935474,0.0957003,0.0978447,0.100007,0.102209,0.104469,0.106801,0.109217,0.111724,0.114327,0.11703,0.119832,0.122731,0.125725,0.128807,0.131971,0.13521,0.138515,0.141875,0.14528,0.14872,0.152183,0.155658,0.159133,0.162596,0.166034,0.169438,0.172795,0.176094,0.179324,0.182474,0.185536,0.188498,0.191353,0.194091,0.196705,0.199187,0.201531,0.20373,0.20578,0.207674,0.209409,0.210981,0.212388,0.213626,0.214694,0.215592,0.216318,0.216873,0.217256,0.21747,0.217517,0.217397,0.217115,0.216673,0.216076,0.215326,0.214428,0.213388,0.212211,0.210901,0.209466,0.20791,0.206239,0.204461,0.202581,0.200606,0.198543,0.196398,0.194178,0.19189,0.189539,0.187132,0.184675,0.182175,0.179636,0.177065,0.174466,0.171844,0.169204,0.16655,0.163885,0.161212,0.158534,0.155853,0.153171,0.150487,0.147802,0.145114,0.142423,0.139725,0.137018,0.134294,0.13155,0.128776,0.125965,0.123106,0.120185,0.117189,0.114102,0.110904,0.107574,0.104089,0.100422,0.096544,0.0924214,0.088019,0.0832977,0.0782155,0.0727269,0.0667835,0.0603341,0.0533249,0.0457003,0.037403,0.0283762
0.0615249,0.0669611,0.0717434,0.075945,0.0796373,0.0828887,0.085764,0.0883243,0.0906264,0.092723,0.0946618,0.0964865,0.0982358,0.0999442,0.101642,0.103355,0.105105,0.106911,0.108788,0.110747,0.112797,0.114943,0.117189,0.119536,0.121983,0.124527,0.127163,0.129885,0.132686,0.135559,0.138493,0.141479,0.144507,0.147565,0.150642,0.153727,0.156809,0.159876,0.162917,0.16592,0.168875,0.171771,0.174599,0.177347,0.180008,0.182572,0.185032,0.187379,0.189606,0.191708,0.193678,0.195511,0.197203,0.19875,0.200149,0.201397,0.202493,0.203434,0.204221,0.204853,0.205331,0.205655,0.205829,0.205852,0.205729,0.205462,0.205056,0.204513,0.203838,0.203036,0.202113,0.201072,0.199921,0.198664,0.197307,0.195858,0.194321,0.192703,0.191011,0.18925,0.187427,0.185548,0.183619,0.181645,0.179632,0.177586,0.175512,0.173413,0.171296,0.169162,0.167018,0.164864,0.162704,0.160541,0.158375,0.156208,0.15404,0.151871,0.149699,0.147523,0.14534,0.143148,0.14094,0.138712,0.136457,0.134167,0.131833,0.129444,0.126988,0.124452,0.12182,0.119074,0.116194,0.113158,0.109943,0.106522,0.102865,0.09894,0.0947128,0.0901456,0.0851984,0.0798283,0.07399,0.0676363,0.0607178,0.053184,0.0449839,0.0360658
0.0726405,0.0774532,0.0816428,0.0852786,0.0884276,0.0911544,0.0935202,0.095583,0.097397,0.0990124,0.100475,0.101828,0.103107,0.104347,0.105578,0.106825,0.108109,0.109451,0.110864,0.11236,0.113949,0.115636,0.117426,0.11932,0.121318,0.123417,0.125613,0.127901,0.130274,0.132724,0.135242,0.13782,0.140446,0.143111,0.145804,0.148513,0.151227,0.153936,0.156627,0.159291,0.161917,0.164494,0.167012,0.169463,0.171836,0.174125,0.176319,0.178414,0.1804,0.182274,0.184029,0.18566,0.187163,0.188536,0.189774,0.190876,0.191841,0.192667,0.193355,0.193903,0.194315,0.19459,0.194732,0.194741,0.194623,0.194379,0.194014,0.193532,0.192938,0.192237,0.191433,0.190533,0.189542,0.188466,0.18731,0.186081,0.184785,0.183428,0.182015,0.180554,0.179048,0.177505,0.17593,0.174327,0.172701,0.171058,0.1694,0.167733,0.166059,0.164381,0.162702,0.161024,0.159347,0.157673,0.156001,0.154332,0.152665,0.150996,0.149324,0.147645,0.145955,0.144248,0.142519,0.140761,0.138964,0.13712,0.135218,0.133245,0.131189,0.129034,0.126763,0.124358,0.121798,0.119061,0.116123,0.112956,0.109531,0.105818,0.101782,0.0973871,0.0925956,0.0873668,0.0816584,0.0754265,0.0686259,0.0612107,0.0531347,0.0443532
0.0844622,0.0885981,0.0921426,0.0951607,0.0977161,0.0998699,0.10168,0.103203,0.104489,0.105587,0.10654,0.107391,0.108174,0.108923,0.109666,0.11043,0.111235,0.1121,0.11304,0.114067,0.115191,0.116418,0.117751,0.119194,0.120746,0.122404,0.124166,0.126026,0.127977,0.130014,0.132126,0.134305,0.136541,0.138824,0.141144,0.143488,0.145848,0.148211,0.150567,0.152905,0.155215,0.157486,0.15971,0.161876,0.163976,0.166002,0.167946,0.169801,0.171561,0.17322,0.174773,0.176215,0.177542,0.178753,0.179843,0.180811,0.181657,0.182379,0.182978,0.183454,0.183809,0.184045,0.184163,0.184168,0.184062,0.183848,0.183532,0.183118,0.18261,0.182014,0.181335,0.180578,0.17975,0.178856,0.177903,0.176895,0.17584,0.174742,0.173608,0.172443,0.171253,0.170042,0.168815,0.167578,0.166334,0.165087,0.16384,0.162596,0.161357,0.160126,0.158904,0.15769,0.156487,0.155292,0.154104,0.152923,0.151744,0.150566,0.149383,0.14819,0.146982,0.145752,0.144492,0.143194,0.141848,0.140442,0.138965,0.137403,0.135742,0.133964,0.132054,0.12999,0.127752,0.125317,0.12266,0.119755,0.116572,0.113081,0.109249,0.105042,0.100423,0.0953533,0.0897941,0.0837043,0.0770423,0.0697661,0.0618345,0.0532057
0.0969629,0.100375,0.103226,0.105579,0.107494,0.109031,0.110243,0.111185,0.111906,0.112452,0.112865,0.113184,0.113446,0.113681,0.113918,0.114181,0.114493,0.11487,0.115329,0.11588,0.116534,0.117297,0.118173,0.119165,0.120272,0.121494,0.122826,0.124264,0.125801,0.127432,0.129146,0.130936,0.132792,0.134704,0.136661,0.138654,0.14067,0.1427,0.144733,0.146757,0.148764,0.150743,0.152685,0.15458,0.15642,0.158197,0.159903,0.161533,0.163079,0.164536,0.165899,0.167164,0.168329,0.169389,0.170342,0.171188,0.171926,0.172555,0.173076,0.17349,0.173798,0.174003,0.174108,0.174115,0.174029,0.173854,0.173593,0.173252,0.172836,0.17235,0.171799,0.171191,0.170529,0.16982,0.169071,0.168286,0.167471,0.166633,0.165777,0.164907,0.16403,0.163148,0.162268,0.161393,0.160525,0.159669,0.158827,0.158,0.157191,0.156399,0.155626,0.154871,0.154132,0.153408,0.152696,0.151993,0.151295,0.150598,0.149895,0.14918,0.148445,0.147684,0.146885,0.14604,0.145137,0.144163,0.143106,0.14195,0.14068,0.139278,0.137725,0.136003,0.134088,0.131957,0.129586,0.126948,0.124014,0.120754,0.117136,0.113128,0.108694,0.103798,0.0984022,0.0924693,0.0859605,0.0788377,0.0710625,0.0625999
0.11012,0.112763,0.114877,0.116521,0.117754,0.118631,0.119207,0.119531,0.119651,0.119612,0.119454,0.119216,0.118931,0.118631,0.118342,0.11809,0.117893,0.117772,0.117739,0.117807,0.117986,0.118282,0.118699,0.11924,0.119905,0.120693,0.121599,0.12262,0.12375,0.124981,0.126306,0.127715,0.129201,0.130751,0.132357,0.134008,0.135692,0.137401,0.139122,0.140845,0.142561,0.14426,0.145932,0.147568,0.149161,0.150701,0.152183,0.153599,0.154943,0.156211,0.157397,0.158498,0.15951,0.160432,0.16126,0.161995,0.162635,0.163182,0.163634,0.163995,0.164266,0.16445,0.164549,0.164567,0.164509,0.164378,0.164179,0.163918,0.163599,0.163228,0.162811,0.162354,0.161862,0.161342,0.160798,0.160238,0.159666,0.159088,0.158509,0.157934,0.157368,0.156815,0.156279,0.155763,0.155269,0.154801,0.154359,0.153946,0.15356,0.153203,0.152874,0.15257,0.15229,0.15203,0.151787,0.151556,0.151332,0.151108,0.150878,0.150634,0.150367,0.150066,0.149723,0.149325,0.148859,0.148312,0.14767,0.146916,0.146034,0.145005,0.14381,0.142428,0.140836,0.139012,0.13693,0.134562,0.131882,0.12886,0.125464,0.121663,0.117423,0.11271,0.107487,0.101721,0.0953753,0.0884139,0.080803,0.0725086
0.123909,0.125744,0.12708,0.127974,0.128485,0.128665,0.128566,0.128237,0.127724,0.12707,0.126313,0.125491,0.124637,0.12378,0.122947,0.122162,0.121445,0.120812,0.120279,0.119857,0.119555,0.11938,0.119337,0.119426,0.11965,0.120005,0.12049,0.121098,0.121826,0.122664,0.123607,0.124644,0.125767,0.126966,0.12823,0.129549,0.130912,0.13231,0.13373,0.135164,0.136601,0.138032,0.139446,0.140836,0.142193,0.143509,0.144777,0.145992,0.147147,0.148236,0.149257,0.150204,0.151076,0.15187,0.152584,0.153218,0.153771,0.154244,0.154639,0.154956,0.155198,0.155369,0.155471,0.155508,0.155484,0.155405,0.155275,0.155099,0.154883,0.154633,0.154354,0.154052,0.153733,0.153404,0.153069,0.152736,0.152408,0.152091,0.151791,0.151512,0.151258,0.151032,0.150839,0.15068,0.150559,0.150476,0.150433,0.150429,0.150465,0.150539,0.150649,0.150793,0.150967,0.151167,0.151388,0.151624,0.151868,0.152114,0.152351,0.152572,0.152767,0.152923,0.153029,0.153073,0.153041,0.152917,0.152686,0.152331,0.151834,0.151177,0.150337,0.149295,0.148027,0.14651,0.144718,0.142625,0.140202,0.137421,0.134252,0.130663,0.126623,0.122098,0.117055,0.111461,0.105282,0.0984861,0.0910402,0.0829161
0.138313,0.139301,0.13982,0.139928,0.139679,0.139126,0.138318,0.137304,0.136126,0.134827,0.133444,0.132014,0.130568,0.129134,0.127739,0.126406,0.125153,0.123998,0.122956,0.122036,0.121248,0.120598,0.120091,0.119729,0.119511,0.119436,0.119502,0.119702,0.120032,0.120484,0.121051,0.121723,0.122492,0.123347,0.124278,0.125275,0.126328,0.127425,0.128556,0.129711,0.13088,0.132053,0.133221,0.134375,0.135508,0.136611,0.137678,0.138702,0.139678,0.140601,0.141467,0.142272,0.143014,0.143691,0.144301,0.144843,0.145319,0.145729,0.146074,0.146356,0.146579,0.146744,0.146856,0.146919,0.146938,0.146917,0.146861,0.146777,0.14667,0.146545,0.146408,0.146267,0.146125,0.145991,0.145868,0.145764,0.145682,0.145629,0.145609,0.145627,0.145685,0.145788,0.145937,0.146137,0.146387,0.146689,0.147042,0.147447,0.147903,0.148405,0.148953,0.149542,0.150168,0.150825,0.151507,0.152207,0.152916,0.153627,0.154329,0.155012,0.155664,0.156274,0.156827,0.15731,0.157707,0.158003,0.158181,0.158223,0.158109,0.157821,0.157336,0.156633,0.155689,0.154479,0.152978,0.15116,0.148996,0.146459,0.143519,0.140145,0.136307,0.131974,0.127112,0.121691,0.11568,0.109047,0.101764,0.0938017
0.153311,0.153417,0.153085,0.152371,0.151328,0.150008,0.148458,0.146727,0.144855,0.142883,0.140849,0.138787,0.136727,0.134697,0.132723,0.130826,0.129025,0.127337,0.125774,0.124349,0.123069,0.121941,0.120968,0.120152,0.119493,0.118989,0.118638,0.118434,0.11837,0.118441,0.118638,0.118953,0.119375,0.119894,0.120502,0.121186,0.121937,0.122743,0.123594,0.124481,0.125392,0.126318,0.127251,0.128181,0.1291,0.130001,0.130877,0.131721,0.132529,0.133296,0.134018,0.13469,0.135312,0.135881,0.136397,0.136858,0.137266,0.137621,0.137925,0.138181,0.138391,0.138559,0.138689,0.138785,0.138853,0.138896,0.138922,0.138935,0.138941,0.138946,0.138957,0.13898,0.13902,0.139084,0.139177,0.139305,0.139473,0.139686,0.139948,0.140264,0.140637,0.141069,0.141563,0.142121,0.142743,0.14343,0.144182,0.144995,0.14587,0.146801,0.147786,0.14882,0.149896,0.151009,0.152151,0.153313,0.154487,0.155661,0.156826,0.157969,0.159078,0.160139,0.161136,0.162056,0.162882,0.163596,0.164181,0.164618,0.164886,0.164966,0.164835,0.16447,0.163849,0.162946,0.161736,0.160193,0.158288,0.155995,0.153284,0.150126,0.14649,0.142346,0.137665,0.132415,0.126568,0.120094,0.112966,0.105158