-0,-0,-0,-0,-0,-0,-0,-0,-0,-0,-0,-0,-0,-0,-0,-0,-0,-0,-0,-0,-0,-0,-0,-0,-0,-0,-0,-0,-0,-0,-0,-0,-0,-0,-0,-0,-0,-0,-0,-0,-0,-0,-0,-0,-0,-0,-0,-0,-0,-0,-0,-0,-0,-0,-0,-0,-0,-0,-0,-0,-0,-0,-0,-0,-0,-0,-0,-0,-0,-0,-0,-0,-0,-0,-0,-0,-0,-0,-0,-0,-0,-0,-0,-0,-0,-0,-0,-0,-0,-0,-0,-0,-0,-0,-0,-0,-0,-0,-0,-0,-0,-0,-0,-0,-0,-0,-0,-0,-0,-0,-0,-0,-0,-0,-0,-0,-0,-0,-0,-0,-0,-0,-0,-0,-0,-0,-0,-0
-0,2.58999e-08,9.39432e-08,1.74675e-07,2.45584e-07,2.92493e-07,3.07142e-07,2.8508e-07,2.24271e-07,1.24228e-07,-1.45291e-08,-1.90823e-07,-4.03045e-07,-6.49315e-07,-9.27583e-07,-1.23571e-06,-1.57153e-06,-1.93287e-06,-2.31758e-06,-2.72359e-06,-3.14886e-06,-3.59145e-06,-4.04947e-06,-4.52114e-06,-5.00475e-06,-5.49867e-06,-6.00133e-06,-6.51126e-06,-7.02704e-06,-7.54733e-06,-8.07082e-06,-8.59628e-06,-9.12251e-06,-9.64837e-06,-1.01727e-05,-1.06945e-05,-1.12127e-05,-1.17261e-05,-1.22339e-05,-1.27349e-05,-1.32282e-05,-1.37128e-05,-1.41876e-05,-1.46517e-05,-1.51041e-05,-1.55437e-05,-1.59697e-05,-1.63808e-05,-1.67763e-05,-1.71549e-05,-1.75158e-05,-1.78579e-05,-1.81802e-05,-1.84818e-05,-1.87616e-05,-1.90187e-05,-1.92521e-05,-1.9461e-05,-1.96444e-05,-1.98015e-05,-1.99315e-05,-2.00337e-05,-2.01072e-05,-2.01516e-05,-2.01663e-05,-2.01506e-05,-2.01043e-05,-2.00269e-05,-1.99183e-05,-1.97783e-05,-1.96069e-05,-1.94041e-05,-1.91702e-05,-1.89053e-05,-1.86101e-05,-1.82849e-05,-1.79305e-05,-1.75477e-05,-1.71374e-05,-1.67007e-05,-1.62388e-05,-1.5753e-05,-1.52447e-05,-1.47155e-05,-1.41671e-05,-1.36012e-05,-1.30199e-05,-1.2425e-05,-1.18187e-05,-1.12031e-05,-1.05805e-05,-9.95321e-06,-9.32355e-06,-8.69395e-06,-8.06683e-06,-7.44464e-06,-6.82984e-06,-6.22486e-06,-5.63214e-06,-5.05406e-06,-4.49297e-06,-3.95114e-06,-3.43079e-06,-2.93402e-06,-2.46287e-06,-2.01924e-06,-1.60491e-06,-1.22151e-06,-8.70523e-07,-5.53262e-07,-2.70846e-07,-2.41881e-08,1.86031e-07,3.59387e-07,4.9575e-07,5.95324e-07,6.58706e-07,6.86959e-07,6.81717e-07,6.45325e-07,5.81044e-07,4.93336e-07,3.88291e-07,2.74225e-07,1.62483e-07,6.81926e-08,9.59099e-09,-0
-0,9.40116e-08,2.92071e-07,5.11364e-07,6.88363e-07,7.7945e-07,7.56703e-07,6.03519e-07,3.11211e-07,-1.23427e-07,-6.99805e-07,-1.41472e-06,-2.26316e-06,-3.23891e-06,-4.33496e-06,-5.54382e-06,-6.85774e-06,-8.26887e-06,-9.76938e-06,-1.13516e-05,-1.30079e-05,-1.4731e-05,-1.65139e-05,-1.83497e-05,-2.0232e-05,-2.21544e-05,-2.41109e-05,-2.60959e-05,-2.81039e-05,-3.01295e-05,-3.21678e-05,-3.42138e-05,-3.62628e-05,-3.83105e-05,-4.03522e-05,-4.23838e-05,-4.44011e-05,-4.63999e-05,-4.83761e-05,-5.03259e-05,-5.22451e-05,-5.41299e-05,-5.59764e-05,-5.77805e-05,-5.95384e-05,-6.12462e-05,-6.29e-05,-6.44958e-05,-6.60296e-05,-6.74977e-05,-6.8896e-05,-7.02207e-05,-7.14679e-05,-7.26338e-05,-7.37147e-05,-7.47069e-05,-7.56067e-05,-7.64107e-05,-7.71156e-05,-7.77182e-05,-7.82153e-05,-7.86042e-05,-7.88822e-05,-7.9047e-05,-7.90964e-05,-7.90286e-05,-7.88421e-05,-7.85356e-05,-7.81084e-05,-7.756e-05,-7.68903e-05,-7.60997e-05,-7.5189e-05,-7.41594e-05,-7.30126e-05,-7.17508e-05,-7.03767e-05,-6.88934e-05,-6.73044e-05,-6.5614e-05,-6.38268e-05,-6.19478e-05,-5.99826e-05,-5.79372e-05,-5.58181e-05,-5.36321e-05,-5.13866e-05,-4.90891e-05,-4.67476e-05,-4.43706e-05,-4.19664e-05,-3.95439e-05,-3.71121e-05,-3.46803e-05,-3.22575e-05,-2.98532e-05,-2.74766e-05,-2.51371e-05,-2.28439e-05,-2.06061e-05,-1.84325e-05,-1.63318e-05,-1.43124e-05,-1.23823e-05,-1.05492e-05,-8.82014e-06,-7.20191e-06,-5.70064e-06,-4.32184e-06,-3.07036e-06,-1.95031e-06,-9.64953e-07,-1.16664e-07,5.93219e-07,1.16451e-06,1.59833e-06,1.89735e-06,2.06603e-06,2.11098e-06,2.04147e-06,1.87e-06,1.61323e-06,1.29301e-06,9.37832e-07,5.84187e-07,2.77253e-07,6.80617e-08,-0
-0,1.75083e-07,5.12136e-07,8.59856e-07,1.10449e-06,1.16546e-06,9.88752e-07,5.4057e-07,-1.98002e-07,-1.23504e-06,-2.57078e-06,-4.19987e-06,-6.11297e-06,-8.29795e-06,-1.07408e-05,-1.34263e-05,-1.63384e-05,-1.94608e-05,-2.27771e-05,-2.6271e-05,-2.99264e-05,-3.37278e-05,-3.76598e-05,-4.17079e-05,-4.58579e-05,-5.00962e-05,-5.44097e-05,-5.87858e-05,-6.32126e-05,-6.76783e-05,-7.2172e-05,-7.66828e-05,-8.12003e-05,-8.57145e-05,-9.02156e-05,-9.4694e-05,-9.91404e-05,-0.000103546,-0.000107901,-0.000112197,-0.000116425,-0.000120577,-0.000124643,-0.000128615,-0.000132484,-0.000136242,-0.00013988,-0.000143389,-0.000146761,-0.000149987,-0.000153058,-0.000155966,-0.000158703,-0.000161259,-0.000163628,-0.000165801,-0.00016777,-0.000169528,-0.000171067,-0.00017238,-0.000173461,-0.000174305,-0.000174904,-0.000175255,-0.000175352,-0.000175192,-0.000174771,-0.000174087,-0.000173139,-0.000171925,-0.000170446,-0.000168702,-0.000166696,-0.000164429,-0.000161907,-0.000159133,-0.000156114,-0.000152856,-0.000149368,-0.000145658,-0.000141738,-0.000137617,-0.000133308,-0.000128824,-0.000124179,-0.000119388,-0.000114468,-0.000109434,-0.000104303,-9.90952e-05,-9.38275e-05,-8.85195e-05,-8.31907e-05,-7.78609e-05,-7.25501e-05,-6.72786e-05,-6.20665e-05,-5.6934e-05,-5.19011e-05,-4.69873e-05,-4.22119e-05,-3.75936e-05,-3.31505e-05,-2.88998e-05,-2.48581e-05,-2.10407e-05,-1.74622e-05,-1.41356e-05,-1.10726e-05,-8.28372e-06,-5.77744e-06,-3.56062e-06,-1.63804e-06,-1.22309e-08,1.31681e-06,2.35197e-06,3.09949e-06,3.56943e-06,3.77644e-06,3.74064e-06,3.48872e-06,3.05542e-06,2.48525e-06,1.83447e-06,1.17282e-06,5.83943e-07,1.62073e-07,-0
-0,2.46756e-07,6.90926e-07,1.1068e-06,1.32625e-06,1.22841e-06,7.3019e-07,-2.22141e-07,-1.65988e-06,-3.59743e-06,-6.03666e-06,-8.97012e-06,-1.23836e-05,-1.6258e-05,-2.05709e-05,-2.52974e-05,-3.04113e-05,-3.58855e-05,-4.16925e-05,-4.78051e-05,-5.41961e-05,-6.0839e-05,-6.77079e-05,-7.47778e-05,-8.20244e-05,-8.94243e-05,-9.69549e-05,-0.000104594,-0.000112322,-0.000120117,-0.000127961,-0.000135835,-0.00014372,-0.000151599,-0.000159455,-0.00016727,-0.00017503,-0.000182716,-0.000190314,-0.000197809,-0.000205183,-0.000212423,-0.000219513,-0.000226437,-0.00023318,-0.000239727,-0.000246064,-0.000252175,-0.000258044,-0.000263657,-0.000269,-0.000274056,-0.000278813,-0.000283254,-0.000287367,-0.000291137,-0.000294551,-0.000297596,-0.00030026,-0.00030253,-0.000304396,-0.000305846,-0.000306873,-0.000307466,-0.000307618,-0.000307323,-0.000306575,-0.000305371,-0.000303707,-0.000301583,-0.000298998,-0.000295954,-0.000292455,-0.000288506,-0.000284113,-0.000279285,-0.000274033,-0.000268367,-0.000262303,-0.000255856,-0.000249044,-0.000241885,-0.000234401,-0.000226614,-0.00021855,-0.000210233,-0.000201691,-0.000192952,-0.000184047,-0.000175006,-0.000165862,-0.000156647,-0.000147395,-0.00013814,-0.000128916,-0.000119758,-0.000110701,-0.00010178,-9.30276e-05,-8.44789e-05,-7.61664e-05,-6.81223e-05,-6.03774e-05,-5.29613e-05,-4.59024e-05,-3.92269e-05,-3.29593e-05,-2.71221e-05,-2.17353e-05,-1.68162e-05,-1.23794e-05,-8.43606e-06,-4.99413e-06,-2.05744e-06,3.74512e-07,2.3072e-06,3.75174e-06,4.72577e-06,5.25449e-06,5.372e-06,5.1229e-06,4.56427e-06,3.76791e-06,2.82273e-06,1.83684e-06,9.38423e-07,2.7368e-07,-0
-0,2.94845e-07,7.84573e-07,1.17078e-06,1.23101e-06,8.03742e-07,-2.23947e-07,-1.92654e-06,-4.34858e-06,-7.51148e-06,-1.1419e-05,-1.60616e-05,-2.14198e-05,-2.74668e-05,-3.41704e-05,-4.14948e-05,-4.94019e-05,-5.78519e-05,-6.68045e-05,-7.62192e-05,-8.60558e-05,-9.62745e-05,-0.000106837,-0.000117705,-0.000128841,-0.000140212,-0.000151782,-0.000163518,-0.000175388,-0.000187362,-0.00019941,-0.000211503,-0.000223613,-0.000235712,-0.000247775,-0.000259776,-0.000271689,-0.000283489,-0.000295153,-0.000306655,-0.000317972,-0.00032908,-0.000339956,-0.000350576,-0.000360917,-0.000370955,-0.000380667,-0.00039003,-0.000399022,-0.000407618,-0.000415797,-0.000423535,-0.000430811,-0.000437602,-0.000443888,-0.000449647,-0.000454858,-0.000459503,-0.000463562,-0.000467018,-0.000469853,-0.000472052,-0.000473601,-0.000474487,-0.000474698,-0.000474225,-0.00047306,-0.000471196,-0.000468631,-0.000465362,-0.00046139,-0.000456718,-0.000451351,-0.000445298,-0.000438568,-0.000431175,-0.000423134,-0.000414465,-0.000405188,-0.000395328,-0.000384911,-0.000373967,-0.000362528,-0.000350628,-0.000338303,-0.000325594,-0.000312542,-0.00029919,-0.000285584,-0.00027177,-0.000257797,-0.000243714,-0.000229573,-0.000215426,-0.000201323,-0.000187318,-0.000173463,-0.000159811,-0.000146413,-0.00013332,-0.000120582,-0.000108248,-9.63629e-05,-8.49729e-05,-7.41201e-05,-6.38441e-05,-5.4182e-05,-4.51672e-05,-3.68297e-05,-2.91954e-05,-2.22859e-05,-1.61178e-05,-1.07025e-05,-6.04529e-06,-2.14494e-06,1.00727e-06,3.42849e-06,5.14541e-06,6.19577e-06,6.62997e-06,6.51321e-06,5.92782e-06,4.97595e-06,3.78242e-06,2.49729e-06,1.29772e-06,3.88357e-07,-0
-0,3.10879e-07,7.64204e-07,9.95532e-07,7.31505e-07,-2.28166e-07,-2.02507e-06,-4.7539e-06,-8.47213e-06,-1.3208e-05,-1.89671e-05,-2.57374e-05,-3.34935e-05,-4.22002e-05,-5.18147e-05,-6.2289e-05,-7.35718e-05,-8.56091e-05,-9.83461e-05,-0.000111727,-0.000125697,-0.000140201,-0.000155186,-0.000170599,-0.000186389,-0.000202507,-0.000218905,-0.000235536,-0.000252356,-0.000269321,-0.000286389,-0.000303519,-0.000320673,-0.000337811,-0.000354895,-0.00037189,-0.000388759,-0.000405467,-0.00042198,-0.000438262,-0.000454279,-0.000469999,-0.000485388,-0.000500411,-0.000515037,-0.000529232,-0.000542962,-0.000556197,-0.000568902,-0.000581045,-0.000592596,-0.00060352,-0.000613788,-0.000623369,-0.000632232,-0.000640349,-0.00064769,-0.000654228,-0.000659938,-0.000664793,-0.000668771,-0.000671851,-0.000674011,-0.000675235,-0.000675506,-0.000674812,-0.000673141,-0.000670487,-0.000666843,-0.000662207,-0.000656581,-0.00064997,-0.00064238,-0.000633824,-0.000624316,-0.000613876,-0.000602524,-0.000590289,-0.0005772,-0.000563291,-0.000548598,-0.000533165,-0.000517035,-0.000500257,-0.000482883,-0.000464967,-0.000446568,-0.000427746,-0.000408565,-0.00038909,-0.00036939,-0.000349534,-0.000329592,-0.000309637,-0.000289742,-0.00026998,-0.000250424,-0.000231146,-0.000212221,-0.000193717,-0.000175705,-0.000158252,-0.000141423,-0.000125281,-0.000109885,-9.52892e-05,-8.15456e-05,-6.87005e-05,-5.67955e-05,-4.58664e-05,-3.59428e-05,-2.70476e-05,-1.91959e-05,-1.23949e-05,-6.64237e-06,-1.92581e-06,1.7787e-06,4.50808e-06,6.31394e-06,7.2647e-06,7.44792e-06,6.97312e-06,5.97482e-06,4.61587e-06,3.09067e-06,1.62835e-06,4.95613e-07,-0
-0,2.89981e-07,6.11532e-07,5.43482e-07,-2.3267e-07,-1.95218e-06,-4.78274e-06,-8.83747e-06,-1.41856e-05,-2.08612e-05,-2.88709e-05,-3.81996e-05,-4.88154e-05,-6.06735e-05,-7.37199e-05,-8.78932e-05,-0.000103128,-0.000119354,-0.000136501,-0.000154497,-0.000173269,-0.000192747,-0.000212861,-0.000233541,-0.000254721,-0.000276335,-0.00029832,-0.000320614,-0.000343157,-0.000365893,-0.000388764,-0.000411718,-0.000434699,-0.000457658,-0.000480544,-0.000503307,-0.0005259,-0.000548275,-0.000570385,-0.000592184,-0.000613626,-0.000634667,-0.000655261,-0.000675363,-0.000694929,-0.000713915,-0.000732277,-0.000749971,-0.000766953,-0.000783181,-0.000798611,-0.000813202,-0.000826911,-0.000839698,-0.000851523,-0.000862347,-0.000872133,-0.000880843,-0.000888443,-0.000894901,-0.000900186,-0.000904269,-0.000907124,-0.000908728,-0.000909061,-0.000908104,-0.000905845,-0.000902273,-0.000897382,-0.00089117,-0.000883638,-0.000874792,-0.000864645,-0.000853209,-0.000840508,-0.000826564,-0.000811409,-0.000795077,-0.000777609,-0.00075905,-0.000739449,-0.000718861,-0.000697347,-0.00067497,-0.000651798,-0.000627906,-0.000603369,-0.000578267,-0.000552686,-0.000526712,-0.000500433,-0.000473944,-0.000447336,-0.000420706,-0.000394149,-0.000367763,-0.000341643,-0.000315888,-0.000290591,-0.000265846,-0.000241746,-0.000218379,-0.000195831,-0.000174184,-0.000153516,-0.0001339,-0.000115403,-9.80863e-05,-8.20043e-05,-6.72041e-05,-5.37243e-05,-4.15947e-05,-3.08349e-05,-2.14541e-05,-1.3449e-05,-6.80315e-06,-1.48533e-06,2.55232e-06,5.37624e-06,7.07388e-06,7.75632e-06,7.56145e-06,6.65738e-06,5.2462e-06,3.56803e-06,1.90539e-06,5.8815e-07,-0
-0,2.2949e-07,3.15486e-07,-2.09488e-07,-1.70184e-06,-4.42666e-06,-8.57405e-06,-1.42728e-05,-2.16017e-05,-3.05993e-05,-4.1272e-05,-5.36003e-05,-6.75449e-05,-8.30508e-05,-0.000100051,-0.000118471,-0.000138228,-0.000159237,-0.000181409,-0.000204655,-0.000228884,-0.000254007,-0.000279936,-0.000306584,-0.000333866,-0.000361699,-0.000390004,-0.000418701,-0.000447715,-0.000476972,-0.0005064,-0.000535931,-0.000565495,-0.000595026,-0.000624461,-0.000653736,-0.000682788,-0.000711557,-0.000739982,-0.000768005,-0.000795565,-0.000822605,-0.000849067,-0.000874894,-0.000900027,-0.000924412,-0.000947989,-0.000970705,-0.000992503,-0.00101333,-0.00103312,-0.00105184,-0.00106942,-0.00108581,-0.00110096,-0.00111483,-0.00112735,-0.0011385,-0.00114822,-0.00115648,-0.00116322,-0.00116843,-0.00117206,-0.00117408,-0.00117448,-0.00117322,-0.0011703,-0.00116569,-0.00115939,-0.00115141,-0.00114173,-0.00113037,-0.00111735,-0.00110268,-0.00108639,-0.00106851,-0.00104909,-0.00102816,-0.00100578,-0.000981998,-0.000956889,-0.000930519,-0.000902963,-0.000874304,-0.000844629,-0.000814029,-0.000782604,-0.000750455,-0.000717689,-0.000684416,-0.000650751,-0.000616809,-0.000582711,-0.000548577,-0.000514529,-0.00048069,-0.000447182,-0.000414129,-0.000381651,-0.000349866,-0.000318892,-0.00028884,-0.000259821,-0.000231937,-0.000205288,-0.000179965,-0.000156054,-0.000133633,-0.000112769,-9.35233e-05,-7.59433e-05,-6.00667e-05,-4.59186e-05,-3.351e-05,-2.28371e-05,-1.38793e-05,-6.59786e-06,-9.33641e-07,3.19515e-06,5.8955e-06,7.30265e-06,7.58343e-06,6.94007e-06,5.61444e-06,3.89271e-06,2.11084e-06,6.60991e-07,-0
-0,1.28115e-07,-1.30157e-07,-1.27796e-06,-3.70162e-06,-7.69005e-06,-1.34511e-05,-2.11258e-05,-3.07999e-05,-4.2514e-05,-5.62726e-05,-7.20505e-05,-8.97996e-05,-0.000109453,-0.000130932,-0.000154144,-0.000178991,-0.00020537,-0.000233174,-0.000262293,-0.000292619,-0.000324043,-0.000356456,-0.000389753,-0.00042383,-0.000458585,-0.00049392,-0.000529736,-0.000565942,-0.000602445,-0.000639158,-0.000675992,-0.000712865,-0.000749693,-0.000786397,-0.000822897,-0.000859116,-0.000894979,-0.000930409,-0.000965332,-0.000999676,-0.00103337,-0.00106633,-0.0010985,-0.00112981,-0.00116017,-0.00118953,-0.0012178,-0.00124493,-0.00127084,-0.00129547,-0.00131875,-0.00134061,-0.00136098,-0.00137981,-0.00139704,-0.0014126,-0.00142644,-0.0014385,-0.00144874,-0.0014571,-0.00146354,-0.00146803,-0.00147051,-0.00147097,-0.00146938,-0.00146572,-0.00145997,-0.00145212,-0.00144217,-0.00143012,-0.00141599,-0.00139979,-0.00138156,-0.00136131,-0.00133909,-0.00131495,-0.00128895,-0.00126115,-0.00123161,-0.00120043,-0.00116768,-0.00113346,-0.00109787,-0.00106102,-0.00102302,-0.000983988,-0.000944059,-0.00090336,-0.000862028,-0.000820202,-0.000778027,-0.000735648,-0.000693215,-0.000650879,-0.000608791,-0.000567101,-0.00052596,-0.000485517,-0.000445919,-0.000407308,-0.000369824,-0.000333599,-0.000298763,-0.000265437,-0.000233733,-0.000203756,-0.000175602,-0.000149356,-0.000125089,-0.000102861,-8.27197e-05,-6.46943e-05,-4.8799e-05,-3.50294e-05,-2.33613e-05,-1.37483e-05,-6.1199e-06,-3.78917e-07,3.60139e-06,5.98049e-06,6.95427e-06,6.75909e-06,5.67637e-06,4.03791e-06,2.23198e-06,7.10806e-07,-0
-0,-1.45797e-08,-7.28369e-07,-2.66981e-06,-6.24692e-06,-1.17659e-05,-1.94472e-05,-2.94399e-05,-4.18332e-05,-5.66677e-05,-7.39432e-05,-9.36275e-05,-0.000115662,-0.000139967,-0.000166448,-0.000194998,-0.000225499,-0.000257831,-0.000291865,-0.000327473,-0.000364525,-0.000402892,-0.000442444,-0.000483056,-0.000524603,-0.000566962,-0.000610016,-0.000653647,-0.000697744,-0.000742195,-0.000786894,-0.000831736,-0.000876619,-0.000921442,-0.00096611,-0.00101052,-0.00105459,-0.00109822,-0.00114132,-0.0011838,-0.00122557,-0.00126654,-0.00130662,-0.00134573,-0.00138378,-0.00142069,-0.00145636,-0.00149071,-0.00152367,-0.00155514,-0.00158505,-0.00161331,-0.00163984,-0.00166457,-0.00168742,-0.00170832,-0.00172719,-0.00174397,-0.00175859,-0.00177099,-0.00178111,-0.0017889,-0.00179432,-0.00179731,-0.00179784,-0.00179589,-0.00179142,-0.00178442,-0.00177488,-0.0017628,-0.00174817,-0.00173103,-0.00171137,-0.00168925,-0.00166469,-0.00163775,-0.00160848,-0.00157696,-0.00154325,-0.00150745,-0.00146965,-0.00142995,-0.00138848,-0.00134534,-0.00130067,-0.0012546,-0.00120729,-0.00115888,-0.00110953,-0.00105941,-0.00100868,-0.000957522,-0.000906104,-0.000854607,-0.000803214,-0.000752106,-0.000701465,-0.000651471,-0.000602304,-0.000554139,-0.000507148,-0.000461498,-0.000417351,-0.000374859,-0.00033417,-0.000295418,-0.000258729,-0.000224219,-0.000191988,-0.000162123,-0.000134698,-0.000109767,-8.73666e-05,-6.75151e-05,-5.02077e-05,-3.54168e-05,-2.30888e-05,-1.3142e-05,-5.46404e-06,9.13311e-08,3.70762e-06,5.6094e-06,6.06663e-06,5.3996e-06,3.98451e-06,2.26006e-06,7.35435e-07,-0
-0,-1.98493e-07,-1.47996e-06,-4.38829e-06,-9.34496e-06,-1.66667e-05,-2.6581e-05,-3.92405e-05,-5.47344e-05,-7.30995e-05,-9.43292e-05,-0.000118382,-0.000145186,-0.000174648,-0.000206658,-0.000241089,-0.000277806,-0.000316668,-0.000357525,-0.000400229,-0.000444626,-0.000490567,-0.000537901,-0.000586478,-0.000636153,-0.000686783,-0.000738228,-0.00079035,-0.000843017,-0.000896098,-0.000949466,-0.001003,-0.00105657,-0.00111007,-0.00116337,-0.00121636,-0.00126894,-0.00132099,-0.0013724,-0.00142306,-0.00147288,-0.00152173,-0.00156952,-0.00161615,-0.0016615,-0.00170549,-0.001748,-0.00178894,-0.0018282,-0.00186569,-0.00190131,-0.00193497,-0.00196656,-0.001996,-0.0020232,-0.00204806,-0.00207051,-0.00209047,-0.00210786,-0.0021226,-0.00213463,-0.00214388,-0.00215031,-0.00215385,-0.00215447,-0.00215214,-0.00214681,-0.00213847,-0.00212711,-0.00211273,-0.00209533,-0.00207494,-0.00205156,-0.00202526,-0.00199606,-0.00196403,-0.00192924,-0.00189176,-0.0018517,-0.00180915,-0.00176422,-0.00171703,-0.00166773,-0.00161645,-0.00156335,-0.00150859,-0.00145233,-0.00139477,-0.00133609,-0.00127647,-0.00121613,-0.00115526,-0.00109406,-0.00103276,-0.000971567,-0.000910692,-0.000850351,-0.000790758,-0.000732123,-0.000674655,-0.000618555,-0.000564022,-0.000511244,-0.000460403,-0.000411672,-0.00036521,-0.000321166,-0.000279676,-0.000240859,-0.000204817,-0.000171638,-0.000141386,-0.000114105,-8.98177e-05,-6.852e-05,-5.01811e-05,-3.47409e-05,-2.21071e-05,-1.21525e-05,-4.71199e-06,4.2151e-07,3.50052e-06,4.82772e-06,4.76102e-06,3.71931e-06,2.18931e-06,7.33545e-07,-0
-0,-4.2319e-07,-2.38429e-06,-6.43342e-06,-1.29975e-05,-2.23969e-05,-3.48607e-05,-5.054e-05,-6.952e-05,-9.18306e-05,-0.000117456,-0.000146341,-0.000178402,-0.000213529,-0.000251593,-0.000292448,-0.000335941,-0.000381906,-0.000430174,-0.000480572,-0.000532927,-0.000587063,-0.000642807,-0.000699989,-0.000758438,-0.00081799,-0.000878481,-0.000939754,-0.00100165,-0.00106403,-0.00112673,-0.00118961,-0.00125253,-0.00131536,-0.00137795,-0.00144017,-0.0015019,-0.001563,-0.00162334,-0.0016828,-0.00174126,-0.00179858,-0.00185466,-0.00190936,-0.00196256,-0.00201415,-0.00206401,-0.00211201,-0.00215805,-0.002202,-0.00224376,-0.0022832,-0.00232023,-0.00235472,-0.00238659,-0.00241572,-0.00244202,-0.0024654,-0.00248576,-0.00250302,-0.0025171,-0.00252793,-0.00253546,-0.0025396,-0.00254033,-0.00253759,-0.00253135,-0.0025216,-0.00250831,-0.00249148,-0.00247113,-0.00244727,-0.00241993,-0.00238916,-0.00235501,-0.00231755,-0.00227686,-0.00223303,-0.00218617,-0.0021364,-0.00208385,-0.00202867,-0.001971,-0.00191101,-0.00184889,-0.00178482,-0.001719,-0.00165164,-0.00158295,-0.00151317,-0.00144251,-0.00137122,-0.00129954,-0.00122772,-0.00115599,-0.00108462,-0.00101385,-0.000943925,-0.000875095,-0.000807599,-0.000741672,-0.000677545,-0.000615436,-0.000555559,-0.000498111,-0.00044328,-0.000391238,-0.000342144,-0.000296135,-0.000253333,-0.000213838,-0.000177726,-0.000145051,-0.000115838,-9.00868e-05,-6.77632e-05,-4.88015e-05,-3.30995e-05,-2.0516e-05,-1.08676e-05,-3.92466e-06,5.92273e-07,3.01739e-06,3.74462e-06,3.23355e-06,2.01609e-06,7.04392e-07,-0
-0,-6.88035e-07,-3.43979e-06,-8.803e-06,-1.72024e-05,-2.89553e-05,-4.42865e-05,-6.33406e-05,-8.61945e-05,-0.000112868,-0.000143331,-0.000177517,-0.000215323,-0.000256622,-0.000301265,-0.000349087,-0.000399911,-0.000453549,-0.000509809,-0.000568496,-0.00062941,-0.000692354,-0.00075713,-0.000823543,-0.0008914,-0.000960511,-0.00103069,-0.00110176,-0.00117354,-0.00124585,-0.00131853,-0.00139141,-0.00146433,-0.00153712,-0.00160963,-0.00168172,-0.00175321,-0.00182397,-0.00189385,-0.00196271,-0.00203039,-0.00209676,-0.00216167,-0.00222499,-0.00228657,-0.00234627,-0.00240397,-0.00245952,-0.00251278,-0.00256363,-0.00261193,-0.00265756,-0.00270038,-0.00274028,-0.00277713,-0.00281082,-0.00284123,-0.00286825,-0.00289179,-0.00291175,-0.00292804,-0.00294057,-0.00294928,-0.00295409,-0.00295494,-0.0029518,-0.00294462,-0.00293337,-0.00291805,-0.00289865,-0.00287517,-0.00284765,-0.00281611,-0.00278062,-0.00274122,-0.002698,-0.00265106,-0.0026005,-0.00254643,-0.00248901,-0.00242837,-0.00236468,-0.00229813,-0.00222889,-0.00215718,-0.00208322,-0.00200722,-0.00192943,-0.0018501,-0.00176948,-0.00168784,-0.00160545,-0.00152259,-0.00143953,-0.00135657,-0.00127398,-0.00119206,-0.00111109,-0.00103135,-0.000953106,-0.000876642,-0.000802216,-0.000730082,-0.000660482,-0.000593645,-0.000529785,-0.000469102,-0.000411775,-0.000357967,-0.000307815,-0.000261435,-0.000218917,-0.000180323,-0.000145687,-0.000115007,-8.82516e-05,-6.5348e-05,-4.61855e-05,-3.06097e-05,-1.842e-05,-9.36544e-06,-3.14072e-06,6.18316e-07,2.33983e-06,2.52176e-06,1.73835e-06,6.47642e-07,-0
-0,-9.92273e-07,-4.6443e-06,-1.14934e-05,-2.19548e-05,-3.63364e-05,-5.48526e-05,-7.76368e-05,-0.000104753,-0.000136207,-0.000171954,-0.000211907,-0.000255947,-0.000303925,-0.000355672,-0.000410999,-0.000469707,-0.000531584,-0.000596415,-0.000663977,-0.000734047,-0.000806404,-0.000880822,-0.000957084,-0.00103497,-0.00111427,-0.00119477,-0.00127626,-0.00135855,-0.00144144,-0.00152473,-0.00160824,-0.00169178,-0.00177516,-0.00185822,-0.00194077,-0.00202264,-0.00210367,-0.00218368,-0.0022625,-0.00233998,-0.00241595,-0.00249024,-0.00256271,-0.00263318,-0.0027015,-0.00276751,-0.00283107,-0.002892,-0.00295018,-0.00300543,-0.00305762,-0.0031066,-0.00315224,-0.00319439,-0.00323292,-0.0032677,-0.00329862,-0.00332555,-0.00334839,-0.00336703,-0.00338139,-0.00339137,-0.0033969,-0.00339793,-0.00339438,-0.00338623,-0.00337344,-0.00335599,-0.00333389,-0.00330714,-0.00327577,-0.00323983,-0.00319936,-0.00315444,-0.00310517,-0.00305163,-0.00299397,-0.0029323,-0.0028668,-0.00279763,-0.00272497,-0.00264902,-0.00257001,-0.00248817,-0.00240374,-0.00231697,-0.00222815,-0.00213754,-0.00204545,-0.00195217,-0.00185801,-0.00176328,-0.0016683,-0.0015734,-0.0014789,-0.00138512,-0.00129239,-0.00120102,-0.00111132,-0.00102361,-0.00093819,-0.000855336,-0.000775328,-0.000698426,-0.000624876,-0.000554903,-0.000488712,-0.000426488,-0.000368389,-0.000314549,-0.000265069,-0.000220025,-0.000179456,-0.000143365,-0.000111719,-8.44429e-05,-6.14174e-05,-4.24763e-05,-2.74029e-05,-1.59261e-05,-7.7163e-06,-2.38108e-06,5.39998e-07,1.58086e-06,1.35515e-06,5.63244e-07,-0
-0,-1.33509e-06,-5.99527e-06,-1.45e-05,-2.72481e-05,-4.45317e-05,-6.65491e-05,-9.34177e-05,-0.000125184,-0.000161836,-0.000203309,-0.000249497,-0.000300257,-0.000355421,-0.000414794,-0.000478164,-0.000545306,-0.000615985,-0.000689957,-0.000766977,-0.000846794,-0.000929159,-0.00101382,-0.00110054,-0.00118907,-0.00127917,-0.00137061,-0.00146316,-0.00155658,-0.00165066,-0.00174518,-0.00183993,-0.00193471,-0.0020293,-0.0021235,-0.00221712,-0.00230996,-0.00240184,-0.00249255,-0.00258191,-0.00266974,-0.00275586,-0.00284007,-0.0029222,-0.00300206,-0.00307949,-0.0031543,-0.00322632,-0.00329537,-0.00336128,-0.00342388,-0.00348302,-0.00353852,-0.00359022,-0.00363798,-0.00368165,-0.00372107,-0.00375611,-0.00378665,-0.00381256,-0.00383372,-0.00385002,-0.00386139,-0.00386772,-0.00386895,-0.00386502,-0.00385588,-0.0038415,-0.00382186,-0.00379695,-0.0037668,-0.00373142,-0.00369086,-0.0036452,-0.0035945,-0.00353888,-0.00347844,-0.00341332,-0.00334369,-0.0032697,-0.00319156,-0.00310947,-0.00302366,-0.00293437,-0.00284186,-0.00274641,-0.0026483,-0.00254785,-0.00244536,-0.00234116,-0.00223559,-0.002129,-0.00202174,-0.00191416,-0.00180663,-0.00169951,-0.00159317,-0.00148797,-0.00138426,-0.00128241,-0.00118275,-0.00108562,-0.000991354,-0.000900251,-0.000812607,-0.000728699,-0.000648783,-0.000573089,-0.000501827,-0.000435177,-0.00037329,-0.000316285,-0.000264248,-0.000217226,-0.00017523,-0.000138227,-0.000106138,-7.88375e-05,-5.61493e-05,-3.78418e-05,-2.3625e-05,-1.31468e-05,-5.98828e-06,-1.6587e-06,4.09413e-07,8.66303e-07,4.51329e-07,-0
-0,-1.71564e-06,-7.48998e-06,-1.78177e-05,-3.30745e-05,-5.35307e-05,-7.93634e-05,-0.000110668,-0.000147471,-0.000189736,-0.000237377,-0.000290264,-0.000348232,-0.000411084,-0.000478603,-0.00055055,-0.000626674,-0.000706712,-0.000790394,-0.000877448,-0.000967595,-0.00106056,-0.00115607,-0.00125385,-0.00135362,-0.00145513,-0.00155812,-0.00166232,-0.00176749,-0.00187337,-0.00197973,-0.00208634,-0.00219295,-0.00229934,-0.00240528,-0.00251056,-0.00261495,-0.00271825,-0.00282023,-0.00292069,-0.00301942,-0.00311622,-0.00321087,-0.00330317,-0.00339293,-0.00347995,-0.00356402,-0.00364495,-0.00372254,-0.00379661,-0.00386697,-0.00393342,-0.0039958,-0.00405391,-0.00410759,-0.00415668,-0.00420101,-0.00424042,-0.00427478,-0.00430395,-0.00432779,-0.00434619,-0.00435905,-0.00436627,-0.00436776,-0.00436348,-0.00435335,-0.00433735,-0.00431545,-0.00428765,-0.00425396,-0.00421442,-0.00416908,-0.004118,-0.00406129,-0.00399904,-0.0039314,-0.00385851,-0.00378054,-0.00369769,-0.00361017,-0.00351821,-0.00342206,-0.003322,-0.00321831,-0.00311131,-0.0030013,-0.00288863,-0.00277366,-0.00265674,-0.00253825,-0.00241858,-0.00229811,-0.00217726,-0.00205641,-0.00193598,-0.00181638,-0.00169801,-0.00158126,-0.00146654,-0.00135422,-0.00124469,-0.00113831,-0.00103541,-0.000936344,-0.000841405,-0.000750883,-0.000665039,-0.000584107,-0.000508291,-0.000437762,-0.000372657,-0.000313074,-0.000259073,-0.000210667,-0.000167828,-0.000130476,-9.84809e-05,-7.16559e-05,-4.97565e-05,-3.24759e-05,-1.9441e-05,-1.0208e-05,-4.25824e-06,-9.9293e-07,2.7208e-07,3.12139e-07,-0
-0,-2.13308e-06,-9.12557e-06,-2.14408e-05,-3.94254e-05,-6.33217e-05,-9.32803e-05,-0.000129371,-0.000171592,-0.000219884,-0.000274132,-0.000334182,-0.000399839,-0.000470881,-0.000547063,-0.000628118,-0.000713766,-0.000803717,-0.000897673,-0.000995331,-0.00109639,-0.00120054,-0.00130748,-0.00141691,-0.00152853,-0.00164205,-0.00175718,-0.00187364,-0.00199115,-0.00210944,-0.00222824,-0.00234729,-0.00246633,-0.00258511,-0.00270338,-0.00282089,-0.00293741,-0.00305269,-0.0031665,-0.00327861,-0.00338877,-0.00349677,-0.00360238,-0.00370537,-0.00380551,-0.00390259,-0.00399638,-0.00408667,-0.00417325,-0.00425589,-0.00433439,-0.00440854,-0.00447814,-0.004543,-0.00460293,-0.00465773,-0.00470724,-0.00475127,-0.00478968,-0.0048223,-0.004849,-0.00486964,-0.00488412,-0.00489232,-0.00489415,-0.00488955,-0.00487845,-0.0048608,-0.0048366,-0.00480583,-0.00476851,-0.00472468,-0.00467438,-0.00461771,-0.00455475,-0.00448564,-0.0044105,-0.00432952,-0.00424288,-0.0041508,-0.0040535,-0.00395125,-0.00384432,-0.00373301,-0.00361765,-0.00349856,-0.0033761,-0.00325066,-0.0031226,-0.00299235,-0.00286032,-0.00272692,-0.0025926,-0.00245779,-0.00232295,-0.00218852,-0.00205496,-0.0019227,-0.00179221,-0.0016639,-0.00153822,-0.00141557,-0.00129637,-0.00118099,-0.0010698,-0.000963146,-0.000861348,-0.000764696,-0.000673453,-0.000587846,-0.000508069,-0.000434278,-0.000366586,-0.000305063,-0.000249734,-0.000200572,-0.000157498,-0.000120379,-8.90191e-05,-6.31636e-05,-4.24897e-05,-2.66051e-05,-1.50433e-05,-7.25946e-06,-2.62591e-06,-4.26972e-07,1.45971e-07,-0
-0,-2.58658e-06,-1.08992e-05,-2.53637e-05,-4.62916e-05,-7.38921e-05,-0.000108284,-0.000149505,-0.000197525,-0.000252252,-0.000313544,-0.000381215,-0.000455041,-0.000534772,-0.000620129,-0.000710819,-0.000806531,-0.000906944,-0.00101173,-0.00112056,-0.0012331,-0.00134901,-0.00146797,-0.00158963,-0.00171369,-0.00183981,-0.00196768,-0.00209699,-0.00222743,-0.00235872,-0.00249055,-0.00262263,-0.00275468,-0.00288644,-0.00301761,-0.00314793,-0.00327713,-0.00340495,-0.00353114,-0.00365543,-0.00377756,-0.00389729,-0.00401436,-0.00412853,-0.00423955,-0.00434716,-0.00445114,-0.00455124,-0.00464721,-0.00473884,-0.00482588,-0.00490811,-0.00498531,-0.00505725,-0.00512374,-0.00518456,-0.00523952,-0.00528843,-0.00533112,-0.00536741,-0.00539715,-0.0054202,-0.00543643,-0.00544572,-0.00544797,-0.0054431,-0.00543105,-0.00541177,-0.00538524,-0.00535144,-0.0053104,-0.00526216,-0.00520677,-0.00514431,-0.00507491,-0.00499869,-0.0049158,-0.00482644,-0.00473081,-0.00462914,-0.00452168,-0.00440873,-0.00429058,-0.00416756,-0.00404003,-0.00390834,-0.0037729,-0.00363411,-0.00349241,-0.00334822,-0.00320201,-0.00305425,-0.00290542,-0.002756,-0.00260648,-0.00245736,-0.00230913,-0.00216229,-0.00201733,-0.00187472,-0.00173495,-0.00159847,-0.00146573,-0.00133716,-0.00121315,-0.00109409,-0.000980331,-0.000872202,-0.000769992,-0.000673957,-0.000584314,-0.000501239,-0.000424862,-0.000355268,-0.000292489,-0.000236506,-0.000187242,-0.00014456,-0.00010826,-7.80779e-05,-5.36758e-05,-3.46443e-05,-2.04963e-05,-1.06627e-05,-4.489e-06,-1.23022e-06,-4.68715e-08,-0