0,0,0,0,0,0,0,0,0,0,0,0,0,0,0,0,0,0,0,0,0,0,0,0,0,0,0,0,0,0,0,0,0,0,0,0,0,0,0,0,0,0,0,0,0,0,0,0,0,0,0,0,0,0,0,0,0,0,0,0,0,0,0,0,0,0,0,0,0,0,0,0,0,0,0,0,0,0,0,0,0,0,0,0,0,0,0,0,0,0,0,0,0,0,0,0,0,0,0,0,0,0,0,0,0,0,0,0,0,0,0,0,0,0,0,0,0,0,0,0,0,0,0,0,0,0,0,0
0,5.96974e-06,1.85465e-05,3.24716e-05,4.3711e-05,4.94951e-05,4.80506e-05,3.83234e-05,1.97619e-05,-7.83762e-06,-4.44376e-05,-8.98345e-05,-0.00014371,-0.00020567,-0.00027527,-0.000352033,-0.000435467,-0.000525073,-0.000620356,-0.000720824,-0.000826,-0.000935419,-0.00104863,-0.00116521,-0.00128473,-0.0014068,-0.00153104,-0.00165709,-0.0017846,-0.00191322,-0.00204265,-0.00217257,-0.00230269,-0.00243271,-0.00256237,-0.00269137,-0.00281947,-0.00294639,-0.00307188,-0.00319569,-0.00331756,-0.00343725,-0.0035545,-0.00366906,-0.00378069,-0.00388914,-0.00399415,-0.00409548,-0.00419288,-0.0042861,-0.00437489,-0.00445901,-0.00453821,-0.00461225,-0.00468088,-0.00474389,-0.00480103,-0.00485208,-0.00489684,-0.0049351,-0.00496667,-0.00499137,-0.00500902,-0.00501948,-0.00502262,-0.00501832,-0.00500647,-0.00498701,-0.00495988,-0.00492506,-0.00488254,-0.00483233,-0.0047745,-0.00470912,-0.0046363,-0.00455618,-0.00446892,-0.00437473,-0.00427383,-0.00416649,-0.004053,-0.00393369,-0.0038089,-0.00367901,-0.00354445,-0.00340564,-0.00326305,-0.00311716,-0.00296848,-0.00281753,-0.00266486,-0.00251104,-0.00235662,-0.0022022,-0.00204835,-0.00189568,-0.00174476,-0.00159621,-0.00145059,-0.00130849,-0.00117046,-0.00103707,-0.00090884,-0.000786279,-0.000669873,-0.000560079,-0.000457321,-0.000361991,-0.000274437,-0.000194968,-0.000123845,-6.12745e-05,-7.40814e-06,3.76694e-05,7.39462e-05,0.000101494,0.000120482,0.000131193,0.000134048,0.000129633,0.000118745,0.00010244,8.21063e-05,5.95524e-05,3.70959e-05,1.76056e-05,4.32192e-06,0
0,9.47315e-06,2.65552e-05,4.3509e-05,5.45406e-05,5.54331e-05,4.32822e-05,1.62236e-05,-2.68143e-05,-8.63132e-05,-0.000162322,-0.000254574,-0.00036258,-0.000485688,-0.000623139,-0.000774101,-0.000937696,-0.00111302,-0.00129918,-0.00149526,-0.00170037,-0.00191366,-0.00213426,-0.00236136,-0.00259417,-0.00283194,-0.00307393,-0.00331943,-0.00356778,-0.00381832,-0.00407042,-0.00432349,-0.00457694,-0.0048302,-0.00508272,-0.00533397,-0.00558341,-0.00583055,-0.00607486,-0.00631584,-0.00655301,-0.00678586,-0.00701391,-0.00723667,-0.00745364,-0.00766436,-0.00786831,-0.00806503,-0.00825403,-0.00843482,-0.00860692,-0.00876986,-0.00892317,-0.00906638,-0.00919903,-0.00932067,-0.00943088,-0.00952923,-0.00961531,-0.00968874,-0.00974915,-0.00979621,-0.0098296,-0.00984904,-0.00985428,-0.0098451,-0.00982133,-0.00978284,-0.00972952,-0.00966134,-0.00957829,-0.00948044,-0.00936788,-0.00924077,-0.00909934,-0.00894385,-0.00877463,-0.00859208,-0.00839664,-0.00818881,-0.00796917,-0.00773834,-0.00749699,-0.00724587,-0.00698575,-0.00671748,-0.00644193,-0.00616004,-0.00587278,-0.00558115,-0.00528619,-0.00498896,-0.00469056,-0.0043921,-0.00409469,-0.00379945,-0.00350753,-0.00322003,-0.00293808,-0.00266276,-0.00239515,-0.0021363,-0.0018872,-0.00164883,-0.00142209,-0.00120787,-0.00100694,-0.000820043,-0.000647835,-0.000490884,-0.000349669,-0.000224563,-0.000115828,-2.35977e-05,5.21371e-05,0.000111547,0.00015499,0.000183037,0.000196515,0.000196552,0.000184637,0.000162692,0.000133157,9.90758e-05,6.41561e-05,3.27501e-05,9.68261e-06,0
0,9.69928e-06,2.53273e-05,3.78099e-05,4.05056e-05,2.85091e-05,-1.68357e-06,-5.24294e-05,-0.000125164,-0.000220599,-0.00033889,-0.000479768,-0.000642648,-0.000826714,-0.00103098,-0.00125435,-0.00149565,-0.00175366,-0.00202712,-0.0023148,-0.00261545,-0.00292785,-0.00325082,-0.00358319,-0.00392382,-0.00427164,-0.00462559,-0.00498465,-0.00534785,-0.00571424,-0.0060829,-0.00645295,-0.00682354,-0.00719383,-0.00756301,-0.00793029,-0.00829491,-0.00865609,-0.00901308,-0.00936516,-0.00971158,-0.0100516,-0.0103845,-0.0107097,-0.0110262,-0.0113336,-0.0116309,-0.0119176,-0.0121929,-0.0124561,-0.0127066,-0.0129436,-0.0131664,-0.0133744,-0.0135669,-0.0137433,-0.013903,-0.0140453,-0.0141697,-0.0142756,-0.0143625,-0.0144299,-0.0144774,-0.0145046,-0.0145111,-0.0144967,-0.0144611,-0.0144041,-0.0143255,-0.0142255,-0.0141038,-0.0139608,-0.0137964,-0.013611,-0.0134049,-0.0131784,-0.0129321,-0.0126666,-0.0123824,-0.0120804,-0.0117613,-0.011426,-0.0110756,-0.010711,-0.0103335,-0.00994414,-0.00954431,-0.0091353,-0.0087185,-0.00829536,-0.00786736,-0.00743604,-0.00700294,-0.00656966,-0.0061378,-0.00570896,-0.00528476,-0.00486679,-0.00445666,-0.00405592,-0.0036661,-0.00328869,-0.00292512,-0.00257677,-0.00224493,-0.00193083,-0.0016356,-0.00136027,-0.00110576,-0.000872861,-0.000662244,-0.000474415,-0.000309719,-0.000168317,-5.01647e-05,4.5013e-05,0.000117754,0.000168894,0.000199613,0.000211489,0.000206559,0.000187392,0.000157156,0.000119691,7.95436e-05,4.19843e-05,1.30567e-05,0
0,7.60487e-06,1.72997e-05,1.97434e-05,8.03422e-06,-2.29688e-05,-7.70064e-05,-0.000156662,-0.000263562,-0.000398554,-0.000561863,-0.000753223,-0.000971987,-0.00121722,-0.00148778,-0.00178235,-0.00209953,-0.00243783,-0.00279574,-0.00317171,-0.00356421,-0.00397172,-0.00439273,-0.00482579,-0.00526946,-0.00572235,-0.00618313,-0.00665049,-0.00712317,-0.00759994,-0.00807963,-0.00856108,-0.00904319,-0.00952486,-0.010005,-0.0104827,-0.0109568,-0.0114264,-0.0118905,-0.0123481,-0.0127982,-0.01324,-0.0136724,-0.0140945,-0.0145055,-0.0149043,-0.01529,-0.0156617,-0.0160186,-0.0163596,-0.0166839,-0.0169906,-0.0172789,-0.0175478,-0.0177965,-0.0180242,-0.0182301,-0.0184134,-0.0185735,-0.0187095,-0.0188209,-0.018907,-0.0189673,-0.0190013,-0.0190085,-0.0189886,-0.0189413,-0.0188664,-0.0187637,-0.0186332,-0.018475,-0.018289,-0.0180756,-0.0178351,-0.017568,-0.0172747,-0.0169558,-0.0166122,-0.0162446,-0.015854,-0.0154415,-0.0150083,-0.0145555,-0.0140845,-0.0135969,-0.0130941,-0.0125777,-0.0120496,-0.0115113,-0.0109648,-0.010412,-0.00985486,-0.0092953,-0.00873536,-0.00817708,-0.00762251,-0.00707371,-0.00653271,-0.00600152,-0.00548215,-0.00497652,-0.00448653,-0.00401399,-0.00356064,-0.00312814,-0.00271802,-0.00233171,-0.00197051,-0.00163557,-0.00132789,-0.00104828,-0.00079738,-0.000575592,-0.000383099,-0.000219821,-8.53885e-05,2.08917e-05,0.000100075,0.000153627,0.000183473,0.000192055,0.000182398,0.00015816,0.000123695,8.4104e-05,4.5325e-05,1.4369e-05,0
0,4.0718e-06,4.65316e-06,-7.06524e-06,-3.77661e-05,-9.24927e-05,-0.000174959,-0.000287767,-0.000432578,-0.000610273,-0.000821084,-0.00106472,-0.00134048,-0.00164733,-0.00198398,-0.00234897,-0.00274069,-0.00315745,-0.0035975,-0.00405905,-0.00454031,-0.0050395,-0.00555486,-0.00608464,-0.00662716,-0.00718076,-0.00774383,-0.0083148,-0.00889215,-0.00947441,-0.0100601,-0.010648,-0.0112365,-0.0118244,-0.0124105,-0.0129934,-0.0135718,-0.0141447,-0.0147107,-0.0152688,-0.0158176,-0.0163561,-0.0168831,-0.0173974,-0.0178979,-0.0183835,-0.0188531,-0.0193054,-0.0197395,-0.0201541,-0.0205483,-0.020921,-0.0212709,-0.0215973,-0.0218989,-0.0221749,-0.0224243,-0.0226461,-0.0228395,-0.0230037,-0.0231379,-0.0232413,-0.0233133,-0.0233533,-0.0233609,-0.0233355,-0.0232769,-0.0231848,-0.0230591,-0.0228996,-0.0227065,-0.02248,-0.0222202,-0.0219277,-0.0216029,-0.0212465,-0.0208592,-0.0204421,-0.019996,-0.0195221,-0.0190217,-0.0184963,-0.0179473,-0.0173763,-0.0167851,-0.0161756,-0.0155497,-0.0149094,-0.0142569,-0.0135944,-0.0129241,-0.0122483,-0.0115695,-0.0108901,-0.0102125,-0.00953908,-0.00887237,-0.0082148,-0.00756875,-0.00693661,-0.00632069,-0.00572324,-0.00514643,-0.00459233,-0.00406289,-0.00355996,-0.00308523,-0.00264023,-0.00222632,-0.00184469,-0.00149628,-0.00118183,-0.000901815,-0.00065643,-0.000445572,-0.000268796,-0.000125288,-1.38235e-05,6.72751e-05,0.000120186,0.000147638,0.000152962,0.000140139,0.000113864,7.96178e-05,4.38102e-05,1.40928e-05,0
0,-3.08864e-07,-1.09881e-05,-3.98331e-05,-9.29439e-05,-0.000175001,-0.000289484,-0.000438844,-0.000624648,-0.000847707,-0.0011082,-0.00140576,-0.00173962,-0.00210863,-0.00251139,-0.0029463,-0.00341159,-0.00390537,-0.00442571,-0.00497061,-0.00553805,-0.00612603,-0.00673254,-0.00735563,-0.00799335,-0.0086438,-0.00930515,-0.00997557,-0.0106533,-0.0113367,-0.012024,-0.0127136,-0.013404,-0.0140936,-0.0147808,-0.0154642,-0.0161424,-0.0168139,-0.0174772,-0.0181311,-0.018774,-0.0194048,-0.0200218,-0.020624,-0.0212098,-0.021778,-0.0223272,-0.0228562,-0.0233637,-0.0238482,-0.0243087,-0.0247438,-0.0251524,-0.0255331,-0.0258848,-0.0262065,-0.0264969,-0.0267551,-0.02698,-0.0271706,-0.0273262,-0.0274458,-0.0275287,-0.0275743,-0.027582,-0.0275513,-0.0274819,-0.0273734,-0.0272257,-0.0270388,-0.0268127,-0.0265477,-0.0262441,-0.0259024,-0.0255232,-0.0251072,-0.0246554,-0.0241689,-0.0236487,-0.0230963,-0.0225131,-0.0219008,-0.021261,-0.0205957,-0.0199069,-0.0191968,-0.0184675,-0.0177214,-0.016961,-0.0161888,-0.0154074,-0.0146196,-0.0138279,-0.0130353,-0.0122444,-0.0114582,-0.0106794,-0.00991086,-0.00915527,-0.0084154,-0.0076939,-0.00699335,-0.00631623,-0.00566491,-0.00504165,-0.00444855,-0.00388753,-0.00336036,-0.00286859,-0.00241356,-0.00199634,-0.00161778,-0.00127841,-0.000978459,-0.000717806,-0.000495962,-0.000312027,-0.000164662,-5.20397e-05,2.81879e-05,7.8937e-05,0.000103735,0.00010677,9.29499e-05,6.79921e-05,3.85869e-05,1.26868e-05,0
0,-5.16821e-06,-2.84936e-05,-7.65187e-05,-0.000154518,-0.000266605,-0.00041586,-0.000604448,-0.000833726,-0.00110435,-0.00141636,-0.0017693,-0.00216226,-0.00259401,-0.00306303,-0.00356755,-0.00410568,-0.00467537,-0.00527449,-0.00590089,-0.00655234,-0.00722665,-0.0079216,-0.00863502,-0.00936475,-0.0101087,-0.0108648,-0.011631,-0.0124053,-0.0131859,-0.0139707,-0.0147581,-0.0155462,-0.0163332,-0.0171174,-0.0178972,-0.0186708,-0.0194367,-0.0201932,-0.0209387,-0.0216716,-0.0223905,-0.0230937,-0.0237796,-0.0244469,-0.0250939,-0.0257192,-0.0263213,-0.0268987,-0.0274499,-0.0279735,-0.0284681,-0.0289323,-0.0293648,-0.0297642,-0.0301292,-0.0304587,-0.0307514,-0.0310061,-0.0312219,-0.0313978,-0.0315328,-0.0316261,-0.031677,-0.0316848,-0.0316491,-0.0315694,-0.0314454,-0.031277,-0.0310641,-0.0308069,-0.0305055,-0.0301605,-0.0297723,-0.0293417,-0.0288695,-0.0283568,-0.0278047,-0.0272146,-0.0265879,-0.0259265,-0.025232,-0.0245065,-0.023752,-0.0229709,-0.0221655,-0.0213383,-0.020492,-0.0196294,-0.0187532,-0.0178664,-0.016972,-0.016073,-0.0151727,-0.0142739,-0.0133801,-0.0124942,-0.0116194,-0.0107588,-0.00991549,-0.00909237,-0.00829236,-0.00751823,-0.00677264,-0.00605809,-0.00537692,-0.00473131,-0.00412321,-0.00355434,-0.00302621,-0.00254003,-0.00209672,-0.00169689,-0.00134081,-0.00102836,-0.000759046,-0.000531912,-0.000345549,-0.000198043,-8.69438e-05,-9.22427e-06,3.8755e-05,6.12934e-05,6.34091e-05,5.09299e-05,3.06383e-05,1.05015e-05,0
0,-1.02785e-05,-4.70973e-05,-0.000115661,-0.000220278,-0.000364355,-0.000550444,-0.000780311,-0.00105501,-0.00137495,-0.00174,-0.00214953,-0.0026025,-0.00309753,-0.00363296,-0.00420691,-0.00481733,-0.00546202,-0.00613872,-0.00684507,-0.00757871,-0.00833725,-0.00911829,-0.00991946,-0.0107384,-0.0115729,-0.0124206,-0.0132793,-0.0141468,-0.0150211,-0.0159,-0.0167814,-0.0176635,-0.0185442,-0.0194217,-0.0202939,-0.0211592,-0.0220157,-0.0228615,-0.0236949,-0.0245142,-0.0253175,-0.0261032,-0.0268695,-0.0276147,-0.0283372,-0.0290353,-0.0297073,-0.0303516,-0.0309665,-0.0315506,-0.0321021,-0.0326196,-0.0331015,-0.0335465,-0.033953,-0.0343198,-0.0346455,-0.0349288,-0.0351687,-0.0353641,-0.0355139,-0.0356172,-0.0356733,-0.0356815,-0.0356412,-0.035552,-0.0354135,-0.0352256,-0.0349883,-0.0347017,-0.0343661,-0.033982,-0.03355,-0.0330708,-0.0325454,-0.0319751,-0.031361,-0.0307047,-0.0300078,-0.0292722,-0.0284999,-0.0276931,-0.0268541,-0.0259853,-0.0250895,-0.0241693,-0.0232278,-0.0222678,-0.0212926,-0.0203053,-0.0193093,-0.0183078,-0.0173044,-0.0163024,-0.0153053,-0.0143165,-0.0133396,-0.0123778,-0.0114346,-0.0105132,-0.00961674,-0.00874829,-0.00791078,-0.00710694,-0.00633937,-0.00561043,-0.00492227,-0.00427681,-0.00367567,-0.0031202,-0.00261144,-0.00215007,-0.0017364,-0.00137036,-0.00105144,-0.000778699,-0.000550686,-0.000365453,-0.000220503,-0.000112765,-3.85555e-05,6.45866e-06,2.7316e-05,2.98372e-05,2.07383e-05,7.78869e-06,0
0,-1.54984e-05,-6.62848e-05,-0.000156231,-0.000288612,-0.000466039,-0.000690445,-0.00096311,-0.00128471,-0.00165534,-0.00207462,-0.00254172,-0.00305542,-0.00361418,-0.0042162,-0.00485944,-0.00554172,-0.00626069,-0.00701394,-0.00779896,-0.00861323,-0.00945419,-0.0103193,-0.011206,-0.0121118,-0.0130342,-0.0139708,-0.0149191,-0.0158768,-0.0168417,-0.0178113,-0.0187836,-0.0197564,-0.0207274,-0.0216947,-0.0226561,-0.0236096,-0.0245533,-0.0254851,-0.026403,-0.0273052,-0.0281898,-0.0290547,-0.0298982,-0.0307184,-0.0315134,-0.0322814,-0.0330206,-0.0337291,-0.0344053,-0.0350474,-0.0356535,-0.0362222,-0.0367517,-0.0372405,-0.037687,-0.0380897,-0.0384472,-0.0387582,-0.0390215,-0.0392358,-0.0394001,-0.0395133,-0.0395748,-0.0395837,-0.0395394,-0.0394415,-0.0392896,-0.0390836,-0.0388234,-0.0385093,-0.0381415,-0.0377205,-0.0372471,-0.036722,-0.0361465,-0.0355216,-0.0348488,-0.0341297,-0.0333663,-0.0325603,-0.0317141,-0.03083,-0.0299105,-0.0289584,-0.0279764,-0.0269676,-0.0259351,-0.0248822,-0.0238122,-0.0227287,-0.0216352,-0.0205354,-0.0194329,-0.0183316,-0.017235,-0.016147,-0.0150712,-0.0140115,-0.0129713,-0.0119543,-0.0109638,-0.0100032,-0.00907557,-0.00818399,-0.00733123,-0.00651985,-0.00575221,-0.00503036,-0.00435611,-0.00373093,-0.00315595,-0.00263195,-0.00215932,-0.00173804,-0.00136763,-0.00104717,-0.000775231,-0.000549859,-0.000368565,-0.000228285,-0.000125351,-5.54635e-05,-1.36418e-05,5.82903e-06,9.4757e-06,4.7272e-06,0
0,-2.07396e-05,-8.57122e-05,-0.000197506,-0.000358352,-0.000570015,-0.000833748,-0.00115028,-0.00151984,-0.00194218,-0.0024166,-0.00294202,-0.00351702,-0.00413987,-0.00480859,-0.00552101,-0.00627477,-0.0070674,-0.00789632,-0.00875891,-0.00965247,-0.0105743,-0.0115217,-0.012492,-0.0134825,-0.0144906,-0.0155136,-0.016549,-0.0175942,-0.0186469,-0.0197046,-0.0207648,-0.0218252,-0.0228836,-0.0239377,-0.0249852,-0.0260239,-0.0270517,-0.0280664,-0.029066,-0.0300482,-0.031011,-0.0319524,-0.0328704,-0.0337628,-0.0346277,-0.0354631,-0.0362671,-0.0370376,-0.0377729,-0.0384709,-0.0391299,-0.039748,-0.0403235,-0.0408547,-0.0413399,-0.0417775,-0.042166,-0.042504,-0.04279,-0.043023,-0.0432017,-0.043325,-0.0433922,-0.0434023,-0.0433548,-0.0432492,-0.043085,-0.0428623,-0.0425809,-0.042241,-0.041843,-0.0413874,-0.040875,-0.0403066,-0.0396835,-0.039007,-0.0382786,-0.0375001,-0.0366733,-0.0358005,-0.0348839,-0.0339262,-0.0329299,-0.0318981,-0.0308337,-0.02974,-0.0286204,-0.0274783,-0.0263173,-0.0251413,-0.023954,-0.0227593,-0.0215612,-0.0203637,-0.0191708,-0.0179864,-0.0168147,-0.0156595,-0.0145247,-0.0134142,-0.0123316,-0.0112804,-0.0102641,-0.00928592,-0.0083488,-0.00745554,-0.00660867,-0.00581043,-0.00506277,-0.0043673,-0.00372528,-0.00313758,-0.00260469,-0.00212665,-0.00170306,-0.00133303,-0.00101519,-0.000747626,-0.000527899,-0.000352995,-0.000219313,-0.000122642,-5.81249e-05,-2.02311e-05,-2.70962e-06,1.44391e-06,0
0,-2.59467e-05,-0.000105151,-0.000238989,-0.000428661,-0.000675073,-0.00097876,-0.00133986,-0.00175811,-0.00223284,-0.00276304,-0.00334731,-0.00398401,-0.00467118,-0.00540667,-0.00618812,-0.00701303,-0.00787877,-0.00878262,-0.00972181,-0.0106935,-0.0116949,-0.0127231,-0.0137752,-0.0148485,-0.0159403,-0.0170476,-0.0181678,-0.0192983,-0.0204363,-0.0215794,-0.022725,-0.0238705,-0.0250136,-0.0261518,-0.0272826,-0.0284039,-0.0295131,-0.0306081,-0.0316865,-0.0327462,-0.0337848,-0.0348002,-0.0357901,-0.0367524,-0.037685,-0.0385857,-0.0394524,-0.040283,-0.0410755,-0.0418279,-0.0425381,-0.0432043,-0.0438245,-0.044397,-0.0449199,-0.0453917,-0.0458105,-0.046175,-0.0464837,-0.0467353,-0.0469285,-0.0470623,-0.0471356,-0.0471477,-0.0470979,-0.0469856,-0.0468106,-0.0465725,-0.0462715,-0.0459077,-0.0454815,-0.0449934,-0.0444443,-0.0438352,-0.0431672,-0.0424418,-0.0416606,-0.0408255,-0.0399385,-0.0390019,-0.0380182,-0.0369901,-0.0359204,-0.0348122,-0.0336688,-0.0324936,-0.0312901,-0.0300621,-0.0288134,-0.027548,-0.0262699,-0.0249833,-0.0236924,-0.0224014,-0.0211147,-0.0198364,-0.0185708,-0.0173222,-0.0160947,-0.0148923,-0.0137189,-0.0125784,-0.0114744,-0.0104103,-0.00938924,-0.00841433,-0.00748824,-0.00661337,-0.00579183,-0.00502539,-0.00431543,-0.00366295,-0.00306853,-0.00253232,-0.00205399,-0.00163276,-0.0012673,-0.000955801,-0.000695891,-0.00048465,-0.000318587,-0.000193627,-0.000105091,-4.76861e-05,-1.54925e-05,-1.97123e-06,0
0,-3.10859e-05,-0.000124449,-0.000280334,-0.000498946,-0.000780332,-0.0011243,-0.00153036,-0.00199772,-0.00252528,-0.00311164,-0.00375511,-0.00445374,-0.00520536,-0.00600759,-0.0068579,-0.00775362,-0.00869196,-0.00967005,-0.010685,-0.0117338,-0.0128135,-0.0139211,-0.0150536,-0.0162082,-0.0173818,-0.0185715,-0.0197746,-0.0209881,-0.0222094,-0.0234357,-0.0246644,-0.0258927,-0.027118,-0.0283379,-0.0295498,-0.0307511,-0.0319394,-0.0331123,-0.0342674,-0.0354022,-0.0365143,-0.0376015,-0.0386613,-0.0396916,-0.0406899,-0.041654,-0.0425817,-0.0434708,-0.0443191,-0.0451244,-0.0458846,-0.0465978,-0.0472618,-0.0478748,-0.0484348,-0.0489402,-0.0493891,-0.04978,-0.0501114,-0.0503817,-0.0505898,-0.0507345,-0.0508148,-0.0508297,-0.0507786,-0.0506609,-0.0504763,-0.0502245,-0.0499056,-0.0495197,-0.0490673,-0.0485489,-0.0479654,-0.0473178,-0.0466074,-0.0458358,-0.0450045,-0.0441156,-0.0431712,-0.0421737,-0.0411258,-0.0400302,-0.03889,-0.0377085,-0.036489,-0.0352351,-0.0339506,-0.0326395,-0.0313058,-0.0299536,-0.0285873,-0.0272112,-0.0258298,-0.0244476,-0.0230691,-0.0216987,-0.0203411,-0.0190006,-0.0176816,-0.0163885,-0.0151254,-0.0138963,-0.012705,-0.0115553,-0.0104505,-0.00939391,-0.00838832,-0.00743637,-0.00654033,-0.0057021,-0.00492324,-0.00420486,-0.00354768,-0.00295196,-0.00241748,-0.00194355,-0.00152898,-0.00117203,-0.00087046,-0.000621471,-0.000421719,-0.000267297,-0.000153745,-7.60444e-05,-2.86357e-05,-5.45482e-06,0
0,-3.61368e-05,-0.000143511,-0.00032131,-0.00056879,-0.000885157,-0.00126948,-0.00172065,-0.00223731,-0.00281791,-0.00346062,-0.00416343,-0.00492408,-0.00574014,-0.00660902,-0.00752797,-0.00849414,-0.00950459,-0.0105563,-0.0116462,-0.0127712,-0.0139281,-0.015114,-0.0163256,-0.0175598,-0.0188137,-0.0200843,-0.0213684,-0.0226632,-0.0239658,-0.0252734,-0.0265831,-0.027892,-0.0291977,-0.0304972,-0.0317879,-0.0330672,-0.0343326,-0.0355813,-0.0368109,-0.0380189,-0.0392027,-0.0403598,-0.0414878,-0.0425842,-0.0436466,-0.0446727,-0.04566,-0.0466062,-0.0475091,-0.0483663,-0.0491756,-0.0499349,-0.0506421,-0.051295,-0.0518919,-0.0524307,-0.0529096,-0.0533269,-0.0536812,-0.0539707,-0.0541943,-0.0543506,-0.0544387,-0.0544575,-0.0544063,-0.0542845,-0.0540918,-0.0538279,-0.0534929,-0.0530868,-0.0526102,-0.0520636,-0.0514479,-0.0507642,-0.0500138,-0.0491983,-0.0483195,-0.0473794,-0.0463802,-0.0453245,-0.044215,-0.0430547,-0.0418466,-0.0405943,-0.0393013,-0.0379713,-0.0366084,-0.0352165,-0.0338001,-0.0323634,-0.0309109,-0.0294474,-0.0279773,-0.0265056,-0.0250368,-0.0235758,-0.0221273,-0.020696,-0.0192865,-0.0179033,-0.016551,-0.0152336,-0.0139553,-0.01272,-0.0115314,-0.0103927,-0.0093071,-0.00827741,-0.00730605,-0.00639512,-0.0055463,-0.00476087,-0.0040397,-0.00338317,-0.0027912,-0.00226323,-0.00179819,-0.00139448,-0.00104999,-0.00076209,-0.000527594,-0.000342803,-0.000203494,-0.000104946,-4.19692e-05,-8.9629e-06,0
0,-4.10878e-05,-0.000162273,-0.000361762,-0.000637906,-0.000989097,-0.00141368,-0.0019099,-0.00247585,-0.00310949,-0.00380857,-0.0045707,-0.00539332,-0.00627371,-0.00720905,-0.00819636,-0.00923261,-0.0103147,-0.0114394,-0.0126035,-0.0138038,-0.0150371,-0.0163001,-0.0175896,-0.0189023,-0.0202351,-0.0215849,-0.0229486,-0.024323,-0.0257053,-0.0270923,-0.0284812,-0.0298691,-0.0312531,-0.0326304,-0.0339982,-0.0353537,-0.0366942,-0.0380171,-0.0393195,-0.0405989,-0.0418527,-0.0430782,-0.0442728,-0.045434,-0.0465593,-0.047646,-0.0486918,-0.0496942,-0.0506507,-0.051559,-0.0524167,-0.0532217,-0.0539716,-0.0546643,-0.0552978,-0.05587,-0.0563792,-0.0568233,-0.0572009,-0.0575103,-0.0577501,-0.057919,-0.0580159,-0.0580398,-0.0579898,-0.0578655,-0.0576663,-0.057392,-0.0570426,-0.0566183,-0.0561194,-0.0555467,-0.0549011,-0.0541835,-0.0533955,-0.0525385,-0.0516145,-0.0506256,-0.0495741,-0.0484627,-0.047294,-0.0460713,-0.0447979,-0.0434771,-0.0421128,-0.040709,-0.0392696,-0.0377991,-0.0363019,-0.0347824,-0.0332456,-0.0316961,-0.0301388,-0.0285788,-0.0270209,-0.0254702,-0.0239317,-0.0224102,-0.0209107,-0.0194378,-0.0179964,-0.0165908,-0.0152253,-0.0139041,-0.0126311,-0.0114097,-0.0102434,-0.00913513,-0.0080875,-0.00710279,-0.00618287,-0.0053292,-0.00454278,-0.00382416,-0.00317342,-0.00259014,-0.0020734,-0.00162177,-0.00123328,-0.000905482,-0.000635389,-0.000419519,-0.000253907,-0.000134134,-5.53751e-05,-1.24659e-05,0
0,-4.59336e-05,-0.000180701,-0.000401591,-0.000706102,-0.00109184,-0.00155644,-0.0020975,-0.00271257,-0.00339909,-0.0041544,-0.0049757,-0.00586012,-0.00680463,-0.00780615,-0.00886149,-0.00996741,-0.0111206,-0.0123177,-0.0135554,-0.0148303,-0.016139,-0.0174781,-0.0188444,-0.0202344,-0.0216449,-0.0230727,-0.0245145,-0.0259671,-0.0274275,-0.0288925,-0.0303591,-0.0318243,-0.0332851,-0.0347385,-0.0361817,-0.0376119,-0.039026,-0.0404214,-0.0417952,-0.0431447,-0.0444671,-0.0457596,-0.0470197,-0.0482445,-0.0494315,-0.050578,-0.0516814,-0.0527391,-0.0537487,-0.0547076,-0.0556134,-0.0564637,-0.0572563,-0.0579887,-0.058659,-0.059265,-0.0598047,-0.0602762,-0.0606778,-0.0610079,-0.0612649,-0.0614475,-0.0615544,-0.0615847,-0.0615375,-0.0614122,-0.0612082,-0.0609253,-0.0605635,-0.0601229,-0.0596039,-0.0590072,-0.0583338,-0.0575846,-0.0567611,-0.055865,-0.0548982,-0.0538628,-0.0527613,-0.0515963,-0.0503708,-0.049088,-0.0477512,-0.0463641,-0.0449306,-0.0434547,-0.0419408,-0.0403933,-0.0388168,-0.0372161,-0.0355962,-0.0339619,-0.0323185,-0.0306711,-0.0290248,-0.027385,-0.0257568,-0.0241455,-0.022556,-0.0209935,-0.0194628,-0.0179686,-0.0165154,-0.0151077,-0.0137496,-0.0124447,-0.0111967,-0.0100088,-0.00888376,-0.00782408,-0.00683183,-0.00590863,-0.00505568,-0.00427369,-0.00356293,-0.00292312,-0.00235354,-0.0018529,-0.00141945,-0.00105092,-0.000744518,-0.00049701,-0.000304688,-0.000163436,-6.87752e-05,-1.59452e-05,0
0,-5.06724e-05,-0.000198774,-0.000440739,-0.000773253,-0.00119317,-0.00169743,-0.00228301,-0.0029469,-0.00368603,-0.00449728,-0.00537749,-0.00632341,-0.00733174,-0.0083991,-0.00952207,-0.0106972,-0.011921,-0.0131899,-0.0145005,-0.0158492,-0.0172325,-0.0186469,-0.0200889,-0.0215552,-0.0230423,-0.0245469,-0.0260655,-0.0275951,-0.0291323,-0.0306739,-0.0322168,-0.0337579,-0.0352941,-0.0368223,-0.0383396,-0.0398429,-0.0413294,-0.042796,-0.04424,-0.0456583,-0.0470482,-0.0484068,-0.0497312,-0.0510188,-0.0522667,-0.0534723,-0.0546327,-0.0557453,-0.0568076,-0.0578168,-0.0587705,-0.0596662,-0.0605015,-0.061274,-0.0619814,-0.0626216,-0.0631925,-0.0636922,-0.0641188,-0.0644705,-0.0647459,-0.0649434,-0.0650618,-0.0651001,-0.0650572,-0.0649326,-0.0647256,-0.064436,-0.0640637,-0.0636089,-0.0630719,-0.0624534,-0.0617543,-0.0609758,-0.0601191,-0.0591861,-0.0581787,-0.0570991,-0.0559497,-0.0547334,-0.0534531,-0.0521121,-0.0507139,-0.0492623,-0.0477613,-0.0462151,-0.0446282,-0.0430051,-0.0413507,-0.0396699,-0.0379678,-0.0362496,-0.0345207,-0.0327864,-0.0310522,-0.0293236,-0.0276058,-0.0259045,-0.0242249,-0.0225722,-0.0209517,-0.0193683,-0.0178267,-0.0163316,-0.0148873,-0.0134979,-0.012167,-0.0108982,-0.00969448,-0.0085585,-0.00749256,-0.00649848,-0.00557765,-0.00473099,-0.00395893,-0.00326141,-0.00263787,-0.00208723,-0.00160794,-0.00119791,-0.000854598,-0.000574991,-0.000355648,-0.000192743,-8.2123e-05,-1.93903e-05,0
0,-5.53051e-05,-0.000216485,-0.000479171,-0.000839284,-0.00129295,-0.00183644,-0.00246613,-0.00317842,-0.00396976,-0.0048366,-0.00577534,-0.00678239,-0.00785413,-0.00898691,-0.0101771,-0.0114209,-0.0127148,-0.0140549,-0.0154377,-0.0168595,-0.0183166,-0.0198055,-0.0213224,-0.022864,-0.0244266,-0.0260069,-0.0276014,-0.0292067,-0.0308195,-0.0324366,-0.0340546,-0.0356704,-0.0372807,-0.0388825,-0.0404727,-0.0420481,-0.0436058,-0.0451426,-0.0466556,-0.0481418,-0.0495983,-0.051022,-0.0524102,-0.0537599,-0.0550682,-0.0563323,-0.0575493,-0.0587166,-0.0598314,-0.060891,-0.0618927,-0.0628339,-0.0637123,-0.0645252,-0.0652704,-0.0659456,-0.0665486,-0.0670774,-0.0675301,-0.0679047,-0.0681998,-0.0684137,-0.0685452,-0.068593,-0.0685563,-0.0684342,-0.0682262,-0.0679319,-0.0675512,-0.0670842,-0.0665314,-0.0658933,-0.0651708,-0.064365,-0.0634774,-0.0625097,-0.0614638,-0.0603421,-0.059147,-0.0578813,-0.0565481,-0.0551509,-0.0536931,-0.0521787,-0.0506118,-0.0489967,-0.047338,-0.0456405,-0.0439091,-0.0421491,-0.0403656,-0.0385641,-0.0367501,-0.0349292,-0.0331071,-0.0312894,-0.0294819,-0.0276902,-0.0259199,-0.0241765,-0.0224653,-0.0207917,-0.0191607,-0.017577,-0.0160453,-0.01457,-0.0131549,-0.0118037,-0.0105198,-0.00930605,-0.00816493,-0.00709851,-0.00610838,-0.00519568,-0.00436103,-0.00360459,-0.002926,-0.00232439,-0.00179841,-0.00134619,-0.000965413,-0.000653307,-0.000406686,-0.000222,-9.53963e-05,-2.27972e-05,0
0,-5.98339e-05,-0.000233834,-0.000516876,-0.000904151,-0.00139109,-0.00197333,-0.00264662,-0.00340685,-0.00424993,-0.00517187,-0.00616869,-0.00723641,-0.0083711,-0.00956882,-0.0108257,-0.0121377,-0.013501,-0.0149118,-0.0163662,-0.0178604,-0.0193906,-0.020953,-0.0225441,-0.02416,-0.0257973,-0.0274523,-0.0291216,-0.0308017,-0.0324891,-0.0341805,-0.0358726,-0.037562,-0.0392455,-0.0409199,-0.0425819,-0.0442284,-0.0458563,-0.0474624,-0.0490437,-0.050597,-0.0521194,-0.0536077,-0.055059,-0.0564703,-0.0578386,-0.0591611,-0.0604347,-0.0616566,-0.0628239,-0.063934,-0.064984,-0.0659713,-0.0668933,-0.0677474,-0.0685312,-0.0692423,-0.0698784,-0.0704375,-0.0709175,-0.0713165,-0.0716327,-0.0718647,-0.0720109,-0.0720702,-0.0720415,-0.0719239,-0.0717169,-0.07142,-0.0710331,-0.0705562,-0.0699897,-0.0693342,-0.0685905,-0.0677598,-0.0668435,-0.0658433,-0.0647611,-0.0635993,-0.0623605,-0.0610474,-0.0596632,-0.0582114,-0.0566957,-0.05512,-0.0534885,-0.0518058,-0.0500764,-0.0483055,-0.046498,-0.0446593,-0.0427948,-0.0409102,-0.0390113,-0.0371037,-0.0351935,-0.0332865,-0.0313886,-0.0295058,-0.027644,-0.0258088,-0.024006,-0.022241,-0.0205191,-0.0188455,-0.017225,-0.0156621,-0.0141611,-0.012726,-0.0113603,-0.0100671,-0.00884923,-0.00770889,-0.00664795,-0.00566776,-0.00476919,-0.00395259,-0.00321783,-0.00256426,-0.00199075,-0.00149566,-0.00107689,-0.000731903,-0.00045777,-0.000251194,-0.000108592,-2.61668e-05,0
0,-6.42621e-05,-0.000250825,-0.000553853,-0.000967839,-0.00148756,-0.00210801,-0.00282437,-0.00363197,-0.00452626,-0.00550277,-0.00655713,-0.00768499,-0.0088821,-0.0101442,-0.0114672,-0.0128468,-0.0142791,-0.0157598,-0.0172852,-0.018851,-0.0204536,-0.0220889,-0.0237532,-0.0254428,-0.0271538,-0.0288827,-0.0306259,-0.0323798,-0.0341409,-0.0359058,-0.037671,-0.0394331,-0.0411888,-0.0429349,-0.0446679,-0.0463847,-0.0480821,-0.0497568,-0.0514057,-0.0530256,-0.0546133,-0.0561658,-0.0576799,-0.0591526,-0.0605808,-0.0619615,-0.0632916,-0.0645683,-0.0657886,-0.0669495,-0.0680484,-0.0690824,-0.0700487,-0.0709449,-0.0717682,-0.0725164,-0.0731869,-0.0737777,-0.0742865,-0.0747114,-0.0750505,-0.0753023,-0.0754652,-0.0755378,-0.0755191,-0.0754082,-0.0752043,-0.0749071,-0.0745162,-0.0740317,-0.0734538,-0.0727832,-0.0720207,-0.0711673,-0.0702245,-0.0691939,-0.0680776,-0.0668779,-0.0655972,-0.0642387,-0.0628053,-0.0613006,-0.0597284,-0.0580928,-0.056398,-0.0546487,-0.0528496,-0.051006,-0.0491229,-0.047206,-0.0452608,-0.0432932,-0.0413091,-0.0393146,-0.0373158,-0.0353188,-0.0333298,-0.031355,-0.0294005,-0.0274723,-0.0255764,-0.0237185,-0.0219043,-0.020139,-0.0184279,-0.0167758,-0.0151872,-0.0136663,-0.012217,-0.0108426,-0.00954611,-0.00833016,-0.00719677,-0.00614756,-0.00518363,-0.00430557,-0.00351348,-0.00280693,-0.00218503,-0.00164636,-0.00118905,-0.000810812,-0.000508927,-0.000280346,-0.000121724,-2.9504e-05,0
0,-6.85933e-05,-0.000267468,-0.000590108,-0.00103035,-0.00158232,-0.00224042,-0.00299927,-0.00385366,-0.00479855,-0.00582905,-0.00694035,-0.00812777,-0.0093867,-0.0107126,-0.0121011,-0.0135478,-0.0150483,-0.0165984,-0.018194,-0.0198309,-0.021505,-0.0232125,-0.0249493,-0.0267117,-0.0284957,-0.0302977,-0.032114,-0.0339409,-0.0357749,-0.0376124,-0.0394499,-0.0412839,-0.0431111,-0.0449281,-0.0467314,-0.0485179,-0.0502841,-0.0520269,-0.0537429,-0.0554289,-0.0570817,-0.058698,-0.0602748,-0.0618088,-0.0632969,-0.064736,-0.0661229,-0.0674547,-0.0687284,-0.0699409,-0.0710893,-0.0721707,-0.0731824,-0.0741217,-0.0749858,-0.0757723,-0.0764787,-0.0771026,-0.0776419,-0.0780944,-0.0784584,-0.0787319,-0.0789134,-0.0790016,-0.0789951,-0.0788931,-0.0786947,-0.0783994,-0.0780069,-0.0775171,-0.0769303,-0.076247,-0.0754679,-0.0745942,-0.0736271,-0.0725685,-0.0714201,-0.0701845,-0.0688641,-0.0674618,-0.0659809,-0.064425,-0.0627978,-0.0611036,-0.0593466,-0.0575317,-0.0556637,-0.0537479,-0.0517897,-0.0497947,-0.0477689,-0.0457181,-0.0436486,-0.0415666,-0.0394785,-0.0373906,-0.0353095,-0.0332414,-0.0311929,-0.0291703,-0.0271797,-0.0252272,-0.0233187,-0.02146,-0.0196564,-0.017913,-0.0162347,-0.014626,-0.0130911,-0.0116335,-0.0102566,-0.00896313,-0.00775555,-0.00663567,-0.00560485,-0.00466394,-0.00381327,-0.00305267,-0.00238147,-0.00179847,-0.00130206,-0.000890136,-0.000560231,-0.000309502,-0.000134817,-3.28166e-05,0