-0,-0,-0,-0,-0,-0,-0,-0,-0,-0,-0,-0,-0,-0,-0,-0,-0,-0,-0,-0,-0,-0,-0,-0,-0,-0,-0,-0,-0,-0,-0,-0,-0,-0,-0,-0,-0,-0,-0,-0,-0,-0,-0,-0,-0,-0,-0,-0,-0,-0,-0,-0,-0,-0,-0,-0,-0,-0,-0,-0,-0,-0,-0,-0,-0,-0,-0,-0,-0,-0,-0,-0,-0,-0,-0,-0,-0,-0,-0,-0,-0,-0,-0,-0,-0,-0,-0,-0,-0,-0,-0,-0,-0,-0,-0,-0,-0,-0,-0,-0,-0,-0,-0,-0,-0,-0,-0,-0,-0,-0,-0,-0,-0,-0,-0,-0,-0,-0,-0,-0,-0,-0,-0,-0,-0,-0,-0,-0
-0,-5.96539e-06,-9.44724e-06,-9.62922e-06,-7.48142e-06,-3.90889e-06,4.70746e-07,5.26231e-06,1.02141e-05,1.51638e-05,2.00057e-05,2.46708e-05,2.91142e-05,3.33082e-05,3.72364e-05,4.08908e-05,4.42694e-05,4.73743e-05,5.02107e-05,5.2786e-05,5.51088e-05,5.71887e-05,5.90359e-05,6.06605e-05,6.20728e-05,6.32827e-05,6.42996e-05,6.51326e-05,6.57901e-05,6.62797e-05,6.66085e-05,6.67828e-05,6.68081e-05,6.66893e-05,6.64306e-05,6.60355e-05,6.55068e-05,6.48469e-05,6.40574e-05,6.31396e-05,6.20943e-05,6.0922e-05,5.9623e-05,5.8197e-05,5.66439e-05,5.49634e-05,5.31551e-05,5.12186e-05,4.9154e-05,4.6961e-05,4.464e-05,4.21915e-05,3.96165e-05,3.69163e-05,3.40927e-05,3.11484e-05,2.80861e-05,2.49096e-05,2.16233e-05,1.82321e-05,1.47419e-05,1.11594e-05,7.49175e-06,3.74726e-06,-6.51048e-08,-3.93556e-06,-7.85353e-06,-1.18077e-05,-1.57858e-05,-1.97752e-05,-2.37624e-05,-2.77331e-05,-3.16728e-05,-3.55662e-05,-3.93978e-05,-4.31516e-05,-4.68114e-05,-5.03608e-05,-5.37834e-05,-5.70628e-05,-6.01828e-05,-6.31273e-05,-6.58808e-05,-6.8428e-05,-7.07546e-05,-7.28466e-05,-7.46911e-05,-7.62759e-05,-7.75902e-05,-7.86241e-05,-7.93688e-05,-7.9817e-05,-7.99629e-05,-7.98018e-05,-7.9331e-05,-7.85489e-05,-7.74558e-05,-7.60536e-05,-7.43458e-05,-7.23375e-05,-7.00356e-05,-6.74487e-05,-6.4587e-05,-6.14624e-05,-5.80886e-05,-5.44808e-05,-5.06562e-05,-4.66335e-05,-4.24336e-05,-3.80795e-05,-3.35962e-05,-2.90117e-05,-2.4357e-05,-1.96672e-05,-1.4982e-05,-1.03477e-05,-5.8188e-06,-1.46119e-06,2.64374e-06,6.39273e-06,9.65129e-06,1.22398e-05,1.39135e-05,1.43388e-05,1.30831e-05,9.70864e-06,4.33023e-06,-0
-0,-1.85465e-05,-2.65018e-05,-2.51645e-05,-1.70235e-05,-4.33958e-06,1.11716e-05,2.82887e-05,4.61611e-05,6.41995e-05,8.19969e-05,9.92727e-05,0.000115836,0.00013156,0.000146362,0.000160197,0.000173041,0.000184889,0.000195751,0.000205644,0.000214595,0.000222632,0.000229788,0.000236098,0.000241595,0.000246315,0.00025029,0.000253552,0.000256131,0.000258055,0.00025935,0.000260039,0.000260141,0.000259676,0.000258658,0.000257102,0.000255018,0.000252416,0.000249301,0.000245681,0.000241557,0.000236934,0.000231812,0.000226192,0.000220075,0.000213459,0.000206345,0.000198732,0.000190621,0.000182013,0.00017291,0.000163316,0.000153234,0.000142672,0.000131638,0.000120142,0.000108197,9.58172e-05,8.30209e-05,6.98283e-05,5.62624e-05,4.23494e-05,2.81182e-05,1.36008e-05,-1.16785e-06,-1.61498e-05,-3.1304e-05,-4.65867e-05,-6.19514e-05,-7.73489e-05,-9.27275e-05,-0.000108033,-0.00012321,-0.0001382,-0.000152944,-0.000167382,-0.000181451,-0.00019509,-0.000208237,-0.000220829,-0.000232806,-0.000244106,-0.000254672,-0.000264446,-0.000273373,-0.000281402,-0.000288483,-0.000294572,-0.000299627,-0.000303611,-0.000306492,-0.000308243,-0.000308841,-0.000308271,-0.00030652,-0.000303586,-0.000299468,-0.000294175,-0.000287721,-0.000280125,-0.000271415,-0.000261625,-0.000250793,-0.000238967,-0.0002262,-0.000212551,-0.000198088,-0.000182885,-0.000167023,-0.000150592,-0.000133693,-0.000116436,-9.89439e-05,-8.13544e-05,-6.38247e-05,-4.65357e-05,-2.96989e-05,-1.35656e-05,1.55988e-06,1.53025e-05,2.71933e-05,3.66387e-05,4.28875e-05,4.50104e-05,4.19468e-05,3.2774e-05,1.76056e-05,-0
-0,-3.25206e-05,-4.34831e-05,-3.76146e-05,-1.94056e-05,7.34944e-06,3.96803e-05,7.53589e-05,0.000112751,0.000150671,0.000188267,0.000224929,0.000260228,0.000293868,0.000325649,0.000355447,0.000383193,0.000408859,0.000432446,0.000453981,0.000473504,0.00049107,0.00050674,0.000520579,0.000532655,0.000543037,0.000551792,0.000558984,0.000564676,0.000568924,0.000571781,0.000573296,0.000573513,0.000572469,0.000570199,0.00056673,0.000562087,0.00055629,0.000549354,0.000541292,0.000532114,0.000521824,0.000510429,0.000497931,0.000484331,0.000469631,0.000453831,0.000436933,0.000418939,0.000399855,0.000379685,0.00035844,0.000336132,0.000312775,0.00028839,0.000263002,0.000236639,0.000209336,0.000181132,0.000152074,0.000122214,9.16081e-05,6.0322e-05,2.84262e-05,-4.00243e-06,-3.68804e-05,-7.01179e-05,-0.000103619,-0.000137283,-0.000171001,-0.000204662,-0.000238148,-0.000271338,-0.000304106,-0.000336323,-0.00036786,-0.000398582,-0.000428357,-0.000457049,-0.000484526,-0.000510655,-0.000535306,-0.000558352,-0.000579672,-0.000599147,-0.000616667,-0.000632126,-0.000645428,-0.000656484,-0.000665216,-0.000671553,-0.000675439,-0.000676826,-0.000675679,-0.000671976,-0.000665708,-0.000656878,-0.000645504,-0.000631618,-0.000615263,-0.0005965,-0.000575401,-0.000552056,-0.000526567,-0.00049905,-0.000469638,-0.000438479,-0.000405736,-0.000371592,-0.000336245,-0.000299917,-0.000262852,-0.000225323,-0.000187633,-0.000150127,-0.0001132,-7.73082e-05,-4.29867e-05,-1.0872e-05,1.82706e-05,4.35117e-05,6.37201e-05,7.75298e-05,8.33396e-05,7.94087e-05,6.41822e-05,3.70804e-05,-0
-0,-4.38738e-05,-5.46125e-05,-4.03428e-05,-7.7227e-06,3.78496e-05,9.21101e-05,0.000151769,0.000214331,0.000277926,0.000341165,0.000403031,0.000462782,0.000519894,0.000574002,0.000624866,0.000672342,0.000716357,0.000756893,0.000793974,0.000827652,0.000858003,0.000885119,0.0009091,0.000930052,0.000948083,0.000963302,0.000975812,0.000985714,0.000993102,0.000998063,0.00100068,0.00100102,0.000999149,0.000995127,0.000989,0.00098081,0.000970591,0.000958372,0.000944174,0.000928014,0.000909906,0.000889859,0.000867879,0.000843972,0.000818141,0.000790392,0.000760728,0.000729158,0.000695691,0.000660341,0.000623127,0.000584071,0.000543205,0.000500565,0.000456196,0.00041015,0.00036249,0.000313287,0.000262622,0.000210586,0.000157282,0.000102822,4.73298e-05,-9.06043e-06,-6.62035e-05,-0.000123944,-0.000182115,-0.000240542,-0.000299039,-0.000357412,-0.000415459,-0.000472972,-0.000529735,-0.000585526,-0.000640123,-0.000693296,-0.000744816,-0.000794455,-0.000841983,-0.000887175,-0.000929809,-0.000969668,-0.00100654,-0.00104024,-0.00107056,-0.00109733,-0.00112038,-0.00113956,-0.00115475,-0.00116581,-0.00117266,-0.00117522,-0.00117342,-0.00116723,-0.00115663,-0.00114163,-0.00112227,-0.00109859,-0.00107068,-0.00103865,-0.00100261,-0.000962719,-0.000919162,-0.00087214,-0.000821883,-0.000768649,-0.000712725,-0.000654427,-0.000594103,-0.00053214,-0.000468962,-0.000405042,-0.000340909,-0.000277155,-0.000214454,-0.000153579,-9.54248e-05,-4.10356e-05,8.35602e-06,5.12908e-05,8.60421e-05,0.000110588,0.000122623,0.000119653,9.92608e-05,5.95899e-05,-0
-0,-4.98204e-05,-5.56216e-05,-2.8349e-05,2.33067e-05,9.23901e-05,0.000173373,0.000261914,0.000354643,0.000448973,0.000542935,0.000635053,0.000724227,0.000809658,0.000890778,0.0009672,0.00103868,0.00110507,0.00116633,0.00122245,0.00127351,0.00131959,0.00136081,0.0013973,0.00142922,0.00145671,0.00147993,0.00149902,0.00151413,0.00152538,0.00153292,0.00153686,0.00153729,0.00153433,0.00152804,0.00151851,0.0015058,0.00148995,0.00147102,0.00144903,0.00142401,0.00139599,0.00136498,0.001331,0.00129405,0.00125415,0.0012113,0.00116551,0.00111681,0.00106521,0.00101073,0.000953405,0.000893277,0.000830394,0.000764817,0.000696616,0.000625876,0.000552695,0.000477183,0.000399468,0.000319692,0.000238011,0.000154599,6.96473e-05,-1.66397e-05,-0.000104039,-0.000192314,-0.000281211,-0.000370463,-0.000459787,-0.000548891,-0.000637467,-0.0007252,-0.000811762,-0.000896821,-0.000980038,-0.00106107,-0.00113957,-0.00121518,-0.00128758,-0.00135642,-0.00142135,-0.00148207,-0.00153825,-0.0015896,-0.00163583,-0.00167666,-0.00171187,-0.00174121,-0.00176448,-0.00178152,-0.00179218,-0.00179633,-0.0017939,-0.00178482,-0.00176908,-0.00174668,-0.00171769,-0.00168217,-0.00164027,-0.00159212,-0.00153793,-0.00147794,-0.00141242,-0.00134168,-0.00126607,-0.00118599,-0.00110187,-0.00101421,-0.000923531,-0.000830427,-0.000735544,-0.000639604,-0.000543403,-0.000447838,-0.000353913,-0.000262772,-0.000175722,-9.42693e-05,-2.01578e-05,4.45866e-05,9.7616e-05,0.000136233,0.000157395,0.000157778,0.000133917,8.24054e-05,-0
-0,-4.85269e-05,-4.34754e-05,2.07637e-06,7.77048e-05,0.000175043,0.000287384,0.000409388,0.000536837,0.000666432,0.000795615,0.000922428,0.00104539,0.00116339,0.00127564,0.00138158,0.00148083,0.00157317,0.00165849,0.00173679,0.0018081,0.00187255,0.00193026,0.0019814,0.00202617,0.00206475,0.00209734,0.00212414,0.00214533,0.0021611,0.00217161,0.00217703,0.00217749,0.00217313,0.00216405,0.00215037,0.00213215,0.00210949,0.00208243,0.00205104,0.00201534,0.00197537,0.00193116,0.00188273,0.00183009,0.00177327,0.00171229,0.00164715,0.00157789,0.00150455,0.00142715,0.00134575,0.00126041,0.0011712,0.00107821,0.000981556,0.000881349,0.000777733,0.000670869,0.000560939,0.000448145,0.000332711,0.000214884,9.49329e-05,-2.68522e-05,-0.000150158,-0.000274649,-0.000399971,-0.000525748,-0.000651585,-0.000777071,-0.000901776,-0.00102526,-0.00114706,-0.00126673,-0.00138377,-0.00149773,-0.0016081,-0.00171442,-0.0018162,-0.00191298,-0.00200428,-0.00208966,-0.00216868,-0.00224092,-0.002306,-0.00236353,-0.00241317,-0.00245462,-0.00248759,-0.00251185,-0.00252718,-0.00253343,-0.00253048,-0.00251826,-0.00249673,-0.00246591,-0.00242589,-0.00237678,-0.00231874,-0.00225201,-0.00217687,-0.00209364,-0.0020027,-0.00190451,-0.00179955,-0.00168838,-0.00157163,-0.00144997,-0.00132415,-0.001195,-0.00106343,-0.000930443,-0.000797151,-0.000664789,-0.000534738,-0.000408552,-0.000287988,-0.000175045,-7.20073e-05,1.85154e-05,9.35413e-05,0.000149685,0.000183144,0.000189707,0.000164786,0.0001034,-0
-0,-3.88323e-05,-1.60973e-05,5.36068e-05,0.000158474,0.00028893,0.000437216,0.000597078,0.000763507,0.000932521,0.00110099,0.00126647,0.00142709,0.00158144,0.00172845,0.00186739,0.00199775,0.00211919,0.00223156,0.00233479,0.00242893,0.00251408,0.00259041,0.00265811,0.00271739,0.00276851,0.0028117,0.00284719,0.00287524,0.00289606,0.00290987,0.00291687,0.00291723,0.00291113,0.00289872,0.00288012,0.00285544,0.00282478,0.00278822,0.00274584,0.00269767,0.00264378,0.00258419,0.00251895,0.00244807,0.00237159,0.00228954,0.00220194,0.00210884,0.00201028,0.00190632,0.00179705,0.00168253,0.00156287,0.00143821,0.00130869,0.00117446,0.00103574,0.000892723,0.00074567,0.000594851,0.000440566,0.000283146,0.000122951,-3.96312e-05,-0.000204182,-0.000370257,-0.000537384,-0.000705064,-0.000872773,-0.00103997,-0.00120608,-0.00137052,-0.00153269,-0.00169199,-0.00184777,-0.00199942,-0.00214629,-0.00228776,-0.00242319,-0.00255196,-0.00267347,-0.00278711,-0.00289232,-0.00298856,-0.00307529,-0.00315203,-0.00321834,-0.0032738,-0.00331805,-0.00335077,-0.00337169,-0.00338062,-0.00337738,-0.00336188,-0.0033341,-0.00329405,-0.00324184,-0.00317763,-0.00310164,-0.00301418,-0.00291561,-0.00280638,-0.00268699,-0.00255804,-0.00242019,-0.00227417,-0.00212081,-0.00196102,-0.00179578,-0.0016262,-0.00145347,-0.00127893,-0.00110401,-0.000930335,-0.000759692,-0.000594072,-0.00043571,-0.000287119,-0.000151135,-3.09608e-05,6.97826e-05,0.000147018,0.000196174,0.000212141,0.000189222,0.000120992,-0
-0,-2.00333e-05,2.78751e-05,0.0001281,0.000267791,0.000436385,0.000625227,0.000827254,0.00103674,0.00124907,0.00146056,0.00166833,0.00187011,0.00206416,0.00224918,0.00242423,0.00258864,0.00274198,0.00288402,0.00301464,0.00313386,0.0032418,0.00333863,0.00342455,0.00349984,0.00356477,0.00361961,0.00366467,0.00370022,0.00372653,0.00374387,0.00375248,0.00375258,0.00374438,0.00372805,0.00370376,0.00367165,0.00363183,0.00358442,0.0035295,0.00346713,0.00339739,0.00332032,0.00323597,0.00314438,0.00304559,0.00293965,0.00282659,0.00270648,0.00257939,0.00244539,0.00230459,0.0021571,0.00200307,0.00184265,0.00167604,0.00150346,0.00132517,0.00114144,0.000952592,0.000758986,0.000561007,0.000359079,0.000153665,-5.47372e-05,-0.000265594,-0.000478337,-0.000692362,-0.000907034,-0.00112169,-0.00133563,-0.00154814,-0.00175847,-0.00196586,-0.00216954,-0.00236871,-0.00256257,-0.00275032,-0.00293116,-0.00310429,-0.00326892,-0.0034243,-0.00356965,-0.00370427,-0.00382746,-0.00393856,-0.00403697,-0.0041221,-0.00419346,-0.00425057,-0.00429304,-0.00432053,-0.00433277,-0.00432958,-0.00431084,-0.00427649,-0.00422659,-0.00416125,-0.00408069,-0.00398519,-0.00387514,-0.00375101,-0.00361336,-0.00346285,-0.00330022,-0.00312632,-0.0029421,-0.00274859,-0.00254696,-0.00233846,-0.00212449,-0.00190657,-0.00168635,-0.00146568,-0.00124655,-0.00103119,-0.000822049,-0.000621856,-0.000433651,-0.000260826,-0.000107183,2.30237e-05,0.000125031,0.000193508,0.000222478,0.000205214,0.000134038,-0
-0,8.26499e-06,8.92855e-05,0.000226788,0.000407168,0.000619095,0.000853172,0.00110164,0.00135815,0.00161752,0.00187557,0.00212897,0.00237509,0.0026119,0.00283784,0.00305176,0.00325286,0.00344059,0.00361461,0.00377479,0.0039211,0.00405366,0.00417263,0.00427826,0.00437084,0.00445067,0.00451809,0.00457343,0.00461702,0.00464918,0.00467021,0.0046804,0.00468001,0.00466929,0.00464846,0.0046177,0.00457718,0.00452706,0.00446746,0.00439849,0.00432023,0.00423277,0.00413618,0.00403051,0.00391582,0.00379217,0.00365962,0.00351822,0.00336807,0.00320925,0.00304187,0.00286605,0.00268196,0.00248977,0.0022897,0.00208199,0.00186691,0.0016448,0.001416,0.00118092,0.000939992,0.000693709,0.000442599,0.000187235,-7.17633e-05,-0.000333735,-0.000597975,-0.000863739,-0.00113024,-0.00139666,-0.00166213,-0.00192578,-0.00218669,-0.00244392,-0.00269651,-0.00294349,-0.00318388,-0.00341668,-0.00364093,-0.00385564,-0.00405984,-0.00425259,-0.00443298,-0.00460011,-0.00475314,-0.00489127,-0.00501373,-0.00511984,-0.00520897,-0.00528055,-0.00533409,-0.00536919,-0.00538551,-0.00538282,-0.00536098,-0.00531993,-0.00525974,-0.00518054,-0.0050826,-0.00496628,-0.00483206,-0.00468051,-0.00451234,-0.00432834,-0.00412945,-0.0039167,-0.00369127,-0.00345444,-0.00320762,-0.00295238,-0.00269043,-0.00242361,-0.00215397,-0.00188372,-0.00161529,-0.00135135,-0.00109483,-0.000848956,-0.000617302,-0.000403822,-0.000212908,-4.94409e-05,8.1147e-05,0.000172795,0.000218719,0.000211271,0.000141731,-0
-0,4.62515e-05,0.000168607,0.000350428,0.000577599,0.000838218,0.0011223,0.00142151,0.00172897,0.00203898,0.00234695,0.00264913,0.00294257,0.00322493,0.00349444,0.00374975,0.00398989,0.0042142,0.00442228,0.00461393,0.0047891,0.00494787,0.00509044,0.00521705,0.00532804,0.00542373,0.0055045,0.00557073,0.00562279,0.00566104,0.00568584,0.00569752,0.00569637,0.00568269,0.00565673,0.00561871,0.00556882,0.00550726,0.00543416,0.00534966,0.00525387,0.00514688,0.00502879,0.00489966,0.00475957,0.0046086,0.00444682,0.00427433,0.00409121,0.0038976,0.00369363,0.00347946,0.00325529,0.00302134,0.00277789,0.00252523,0.00226371,0.00199371,0.00171569,0.00143013,0.00113756,0.000838579,0.00053383,0.000224007,-9.01398e-05,-0.00040781,-0.000728153,-0.00105027,-0.00137321,-0.00169599,-0.00201757,-0.00233689,-0.00265286,-0.00296433,-0.00327017,-0.0035692,-0.00386025,-0.00414213,-0.00441367,-0.0046737,-0.00492105,-0.0051546,-0.00537324,-0.00557592,-0.00576162,-0.00592937,-0.00607828,-0.00620752,-0.00631632,-0.00640401,-0.00647001,-0.00651382,-0.00653507,-0.00653345,-0.00650881,-0.00646109,-0.00639033,-0.00629674,-0.00618062,-0.0060424,-0.00588267,-0.00570211,-0.00550157,-0.00528201,-0.00504456,-0.00479046,-0.00452112,-0.00423808,-0.00394305,-0.0036379,-0.00332466,-0.00300554,-0.00268298,-0.00235959,-0.00203824,-0.00172205,-0.00141445,-0.00111917,-0.000840316,-0.0005824,-0.000350397,-0.000149797,1.33218e-05,0.000132215,0.000199361,0.000206316,0.000143514,-0
-0,9.39772e-05,0.000266052,0.000499428,0.000779676,0.00109449,0.00143344,0.00178774,0.00215005,0.00251427,0.00287541,0.00322939,0.00357294,0.00390347,0.00421898,0.00451794,0.00479925,0.00506214,0.00530612,0.00553094,0.00573651,0.00592291,0.00609033,0.00623904,0.00636938,0.00648174,0.00657651,0.00665411,0.00671497,0.00675949,0.00678807,0.00680108,0.00679886,0.00678174,0.00675001,0.00670392,0.00664371,0.00656958,0.0064817,0.00638023,0.0062653,0.00613703,0.00599552,0.00584087,0.00567316,0.00549251,0.005299,0.00509274,0.00487387,0.00464253,0.00439889,0.00414317,0.00387559,0.00359645,0.00330605,0.00300477,0.00269302,0.00237127,0.00204006,0.00169996,0.00135162,0.000995744,0.000633097,0.000264507,-0.000109137,-0.000486888,-0.000867737,-0.00125062,-0.00163442,-0.00201796,-0.00240003,-0.00277938,-0.0031547,-0.00352466,-0.00388792,-0.00424309,-0.0045888,-0.00492365,-0.00524625,-0.00555523,-0.00584922,-0.0061269,-0.00638697,-0.00662819,-0.00684935,-0.00704933,-0.00722707,-0.00738159,-0.007512,-0.00761751,-0.00769743,-0.00775117,-0.00777829,-0.00777845,-0.00775145,-0.00769721,-0.00761581,-0.00750748,-0.00737256,-0.00721158,-0.00702521,-0.00681428,-0.00657977,-0.00632284,-0.00604478,-0.00574709,-0.0054314,-0.00509954,-0.00475352,-0.00439552,-0.00402792,-0.00365333,-0.00327456,-0.00289465,-0.00251692,-0.00214497,-0.0017827,-0.00143436,-0.00110459,-0.000798453,-0.000521494,-0.000279795,-8.00416e-05,7.03845e-05,0.000163304,0.000189596,0.000139021,-0
-0,0.000151402,0.000381649,0.000673939,0.00101368,0.00138832,0.00178709,0.00220086,0.00262195,0.00304391,0.00346142,0.00387011,0.00426644,0.0046476,0.00501138,0.0053561,0.00568053,0.00598379,0.00626532,0.00652481,0.00676216,0.00697742,0.00717079,0.00734255,0.00749307,0.00762276,0.00773206,0.00782142,0.00789132,0.0079422,0.00797449,0.00798863,0.00798498,0.00796392,0.00792576,0.00787081,0.00779931,0.0077115,0.00760759,0.00748774,0.00735212,0.00720087,0.00703409,0.00685193,0.00665448,0.00644186,0.0062142,0.00597164,0.00571433,0.00544245,0.00515621,0.00485587,0.00454171,0.00421407,0.00387331,0.0035199,0.00315431,0.0027771,0.0023889,0.00199039,0.00158233,0.00116554,0.000740925,0.000309441,-0.000127871,-0.000569904,-0.00101548,-0.00146337,-0.00191227,-0.00236082,-0.0028076,-0.00325116,-0.00368999,-0.00412256,-0.00454728,-0.00496257,-0.00536683,-0.00575843,-0.00613578,-0.00649727,-0.00684134,-0.00716643,-0.00747106,-0.00775378,-0.00801321,-0.00824802,-0.008457,-0.00863902,-0.00879304,-0.00891813,-0.00901351,-0.0090785,-0.00911257,-0.00911532,-0.00908653,-0.00902612,-0.00893415,-0.00881089,-0.00865675,-0.00847234,-0.00825843,-0.00801597,-0.00774612,-0.00745019,-0.00712971,-0.00678638,-0.00642213,-0.00603905,-0.00563946,-0.00522588,-0.00480106,-0.00436799,-0.00392988,-0.00349022,-0.00305277,-0.00262161,-0.00220114,-0.00179613,-0.00141173,-0.00105355,-0.0007277,-0.00044082,-0.000200174,-1.3726e-05,0.000109762,0.000160601,0.000128022,-0
-0,0.000218427,0.0005153,0.000873925,0.00127967,0.00171984,0.00218346,0.00266116,0.00314497,0.0036282,0.00410524,0.00457148,0.00502318,0.00545732,0.00587152,0.00626397,0.00663331,0.00697858,0.00729915,0.00759467,0.007865,0.00811021,0.00833048,0.00852611,0.0086975,0.00884508,0.00896933,0.00907074,0.00914983,0.00920709,0.00924299,0.009258,0.00925254,0.009227,0.00918175,0.00911711,0.00903338,0.00893081,0.00880964,0.00867005,0.00851224,0.00833635,0.00814255,0.00793095,0.00770171,0.00745495,0.00719083,0.00690952,0.0066112,0.00629609,0.00596445,0.00561656,0.00525277,0.00487347,0.00447911,0.0040702,0.00364731,0.0032111,0.00276228,0.00230165,0.00183008,0.00134853,0.000858026,0.000359684,-0.000145301,-0.000655659,-0.00117004,-0.00168703,-0.00220512,-0.00272277,-0.00323835,-0.00375019,-0.00425658,-0.00475573,-0.00524586,-0.00572515,-0.00619176,-0.00664384,-0.00707955,-0.00749708,-0.00789462,-0.0082704,-0.00862272,-0.00894992,-0.00925042,-0.00952271,-0.0097654,-0.00997718,-0.0101569,-0.0103034,-0.0104159,-0.0104935,-0.0105358,-0.0105421,-0.0105122,-0.0104461,-0.0103438,-0.0102056,-0.010032,-0.00982367,-0.00958148,-0.00930654,-0.00900014,-0.0086638,-0.00829926,-0.00790847,-0.00749361,-0.00705708,-0.00660151,-0.00612978,-0.00564501,-0.00515058,-0.00465012,-0.00414756,-0.00364712,-0.00315337,-0.0026712,-0.00220588,-0.00176311,-0.00134901,-0.000970235,-0.000633969,-0.000348015,-0.000120869,3.81939e-05,0.000119006,0.000110385,-0
-0,0.000294913,0.000666822,0.00109922,0.00157753,0.00208901,0.00262258,0.00316869,0.00371921,0.00426722,0.00480694,0.00533356,0.00584315,0.00633253,0.00679921,0.00724123,0.00765715,0.00804594,0.00840692,0.00873969,0.00904411,0.00932021,0.00956821,0.00978842,0.00998125,0.0101472,0.0102867,0.0104004,0.0104888,0.0105524,0.0105917,0.0106073,0.0105996,0.010569,0.010516,0.0104409,0.010344,0.0102256,0.010086,0.00992531,0.00974385,0.00954176,0.0093192,0.00907634,0.00881334,0.00853035,0.00822756,0.00790517,0.00756339,0.00720248,0.00682274,0.00642451,0.00600818,0.00557421,0.00512313,0.00465551,0.00417202,0.0036734,0.00316048,0.00263417,0.00209546,0.00154544,0.000985296,0.000416283,-0.000160238,-0.000742822,-0.00132994,-0.00191998,-0.00251124,-0.00310197,-0.00369032,-0.00427441,-0.00485228,-0.00542193,-0.00598134,-0.00652844,-0.00706115,-0.00757739,-0.00807507,-0.00855213,-0.00900653,-0.00943628,-0.00983943,-0.0102141,-0.0105585,-0.010871,-0.0111499,-0.0113938,-0.0116013,-0.0117713,-0.0119026,-0.0119945,-0.0120462,-0.0120571,-0.0120271,-0.0119559,-0.0118437,-0.0116907,-0.0114975,-0.011265,-0.0109939,-0.0106857,-0.0103417,-0.00996375,-0.00955368,-0.00911374,-0.00864639,-0.00815432,-0.0076405,-0.00710817,-0.00656082,-0.00600223,-0.00543648,-0.00486792,-0.00430127,-0.00374155,-0.00319416,-0.00266488,-0.00215992,-0.00168594,-0.0012501,-0.000860108,-0.000524275,-0.000251583,-5.17624e-05,6.46185e-05,8.60523e-05,-0
-0,0.0003807,0.000835974,0.00134956,0.00190701,0.00249561,0.00310426,0.00372334,0.00434457,0.00496091,0.00556645,0.00615623,0.00672619,0.00727305,0.00779417,0.00828754,0.00875163,0.00918535,0.00958799,0.00995913,0.0102986,0.0106065,0.0108829,0.0111283,0.0113431,0.0115277,0.0116828,0.0118089,0.0119065,0.0119764,0.012019,0.0120348,0.0120244,0.0119883,0.0119268,0.0118404,0.0117294,0.0115942,0.0114349,0.0112519,0.0110454,0.0108156,0.0105627,0.0102868,0.00998814,0.00966694,0.00932336,0.00895766,0.00857008,0.00816091,0.00773051,0.00727926,0.00680762,0.00631611,0.00580532,0.00527591,0.00472865,0.00416438,0.00358402,0.00298861,0.00237927,0.00175723,0.00112381,0.000480448,-0.000171339,-0.000829925,-0.00149359,-0.00216052,-0.00282882,-0.0034965,-0.00416151,-0.00482172,-0.00547495,-0.00611895,-0.00675145,-0.00737014,-0.00797267,-0.00855672,-0.00911995,-0.00966005,-0.0101747,-0.0106617,-0.0111189,-0.0115441,-0.0119354,-0.0122908,-0.0126086,-0.012887,-0.0131247,-0.0133201,-0.0134722,-0.0135799,-0.0136425,-0.0136594,-0.0136301,-0.0135547,-0.013433,-0.0132656,-0.013053,-0.012796,-0.0124958,-0.0121536,-0.0117712,-0.0113504,-0.0108935,-0.0104029,-0.00988125,-0.00933167,-0.00875743,-0.00816213,-0.00754964,-0.00692417,-0.00629021,-0.00565259,-0.00501648,-0.00438739,-0.00377122,-0.00317426,-0.00260323,-0.00206529,-0.00156813,-0.00111993,-0.000729497,-0.000406254,-0.000160338,-2.66164e-06,5.50102e-05,-0
-0,0.000475614,0.00102248,0.00162462,0.00226778,0.00293934,0.00362824,0.00432483,0.0050208,0.00570905,0.00638355,0.00703927,0.00767207,0.00827857,0.00885607,0.00940249,0.00991626,0.0103963,0.0108417,0.0112523,0.0116277,0.011968,0.0122736,0.0125447,0.0127818,0.0129855,0.0131563,0.0132948,0.0134018,0.0134777,0.0135233,0.0135391,0.0135256,0.0134833,0.0134127,0.0133142,0.0131883,0.0130351,0.0128552,0.0126486,0.0124157,0.0121567,0.0118718,0.0115612,0.0112252,0.0108638,0.0104775,0.0100663,0.00963071,0.00917095,0.00868745,0.00818063,0.00765103,0.00709922,0.00652588,0.00593175,0.00531769,0.00468463,0.00403363,0.00336584,0.00268251,0.00198501,0.00127483,0.000553553,-0.000177116,-0.000915368,-0.00165929,-0.00240686,-0.00315596,-0.0039044,-0.00464988,-0.00539004,-0.00612243,-0.00684459,-0.00755396,-0.00824798,-0.00892406,-0.00957958,-0.010212,-0.0108186,-0.011397,-0.0119446,-0.0124591,-0.012938,-0.0133791,-0.0137804,-0.0141397,-0.0144552,-0.0147253,-0.0149485,-0.0151233,-0.0152487,-0.0153238,-0.015348,-0.0153207,-0.0152419,-0.0151116,-0.0149302,-0.0146984,-0.014417,-0.0140872,-0.0137106,-0.0132891,-0.0128246,-0.0123196,-0.0117768,-0.0111992,-0.0105902,-0.00995348,-0.00929289,-0.00861275,-0.00791769,-0.00721263,-0.00650286,-0.00579402,-0.00509212,-0.00440355,-0.0037351,-0.003094,-0.00248793,-0.00192504,-0.00141401,-0.000964105,-0.000585157,-0.000287675,-8.28719e-05,1.72771e-05,-0
-0,0.000579474,0.00122604,0.00192404,0.00265944,0.00341979,0.00419411,0.00497281,0.00574758,0.0065113,0.00725791,0.00798236,0.00868044,0.00934873,0.0099845,0.0105856,0.0111505,0.0116781,0.0121675,0.0126184,0.0130306,0.0134042,0.0137394,0.0140366,0.0142964,0.0145193,0.014706,0.0148571,0.0149733,0.0150552,0.0151035,0.0151188,0.0151017,0.0150527,0.0149723,0.014861,0.0147192,0.0145473,0.0143455,0.0141142,0.0138536,0.0135641,0.0132457,0.0128988,0.0125237,0.0121204,0.0116893,0.0112307,0.010745,0.0102324,0.00969346,0.00912866,0.00853857,0.00792385,0.00728523,0.00662357,0.00593981,0.00523498,0.00451026,0.00376693,0.00300637,0.0022301,0.00143977,0.000637132,-0.000175931,-0.000997417,-0.00182521,-0.00265708,-0.0034907,-0.00432362,-0.00515332,-0.00597719,-0.00679255,-0.00759663,-0.00838665,-0.00915976,-0.0099131,-0.0106438,-0.011349,-0.0120258,-0.0126714,-0.013283,-0.0138581,-0.0143939,-0.014888,-0.015338,-0.0157417,-0.0160971,-0.0164022,-0.0166553,-0.0168551,-0.0170002,-0.0170896,-0.0171225,-0.0170986,-0.0170176,-0.0168795,-0.0166847,-0.016434,-0.0161283,-0.0157689,-0.0153576,-0.0148962,-0.0143871,-0.0138329,-0.0132366,-0.0126016,-0.0119313,-0.01123,-0.0105018,-0.00975157,-0.0089842,-0.00820512,-0.00742008,-0.0066352,-0.00585697,-0.00509228,-0.00434844,-0.00363316,-0.00295462,-0.00232147,-0.00174285,-0.00122845,-0.000788502,-0.000433863,-0.000176014,-2.71127e-05,-0
-0,0.000692099,0.00144635,0.00224742,0.00308156,0.0039365,0.00480141,0.00566681,0.00652444,0.00736722,0.00818912,0.00898507,0.00975087,0.0104831,0.011179,0.0118365,0.012454,0.0130303,0.0135647,0.0140568,0.0145066,0.014914,0.0152794,0.0156032,0.015886,0.0161284,0.016331,0.0164946,0.0166199,0.0167076,0.0167584,0.0167729,0.0167517,0.0166954,0.0166047,0.0164798,0.0163213,0.0161296,0.015905,0.0156478,0.0153584,0.0150369,0.0146837,0.0142991,0.0138831,0.0134362,0.0129586,0.0124507,0.0119128,0.0113453,0.0107487,0.0101236,0.00947064,0.0087905,0.00808403,0.00735215,0.0065959,0.00581644,0.00501505,0.00419313,0.00335222,0.00249398,0.00162022,0.000732875,-0.000165998,-0.0010742,-0.00198941,-0.00290917,-0.00383094,-0.00475203,-0.00566967,-0.006581,-0.00748307,-0.00837286,-0.0092473,-0.0101033,-0.0109376,-0.0117472,-0.0125288,-0.0132794,-0.0139959,-0.0146751,-0.0153141,-0.0159102,-0.0164605,-0.0169624,-0.0174135,-0.0178114,-0.0181542,-0.0184399,-0.0186669,-0.0188337,-0.0189393,-0.0189829,-0.0189637,-0.0188817,-0.0187368,-0.0185295,-0.0182604,-0.0179307,-0.0175418,-0.0170954,-0.0165937,-0.0160393,-0.0154349,-0.0147838,-0.0140897,-0.0133565,-0.0125885,-0.0117906,-0.0109676,-0.0101252,-0.00926918,-0.00840569,-0.00754137,-0.0066832,-0.00583858,-0.0050153,-0.0042216,-0.00346613,-0.00275803,-0.0021069,-0.00152283,-0.00101646,-0.000598965,-0.000282075,-7.81192e-05,-0
-0,0.000813308,0.00168308,0.00259435,0.00353366,0.00448897,0.00544964,0.00640632,0.00735089,0.00827632,0.00917667,0.0100469,0.0108829,0.0116811,0.0124391,0.0131545,0.0138259,0.0144522,0.0150327,0.0155669,0.0160549,0.0164968,0.0168929,0.0172436,0.0175497,0.0178117,0.0180303,0.0182065,0.0183408,0.018434,0.018487,0.0185003,0.0184746,0.0184106,0.0183087,0.0181696,0.0179936,0.0177813,0.0175329,0.0172488,0.0169293,0.0165748,0.0161854,0.0157615,0.0153033,0.0148111,0.0142853,0.0137262,0.0131342,0.0125098,0.0118536,0.011166,0.0104478,0.00969992,0.00892312,0.00811845,0.00728707,0.00643022,0.00554932,0.00464589,0.00372162,0.00277831,0.00181795,0.00084263,-0.000145389,-0.00114371,-0.0021498,-0.003161,-0.00417451,-0.00518741,-0.00619668,-0.00719919,-0.00819174,-0.00917102,-0.0101337,-0.0110763,-0.0119955,-0.0128877,-0.0137496,-0.0145777,-0.0153686,-0.016119,-0.0168256,-0.0174854,-0.0180952,-0.0186522,-0.0191538,-0.0195974,-0.0199806,-0.0203015,-0.0205582,-0.0207492,-0.0208731,-0.0209291,-0.0209164,-0.0208348,-0.0206843,-0.0204653,-0.0201786,-0.0198253,-0.0194069,-0.0189254,-0.0183831,-0.0177826,-0.017127,-0.01642,-0.0156654,-0.0148674,-0.0140308,-0.0131607,-0.0122627,-0.0113424,-0.0104064,-0.00946121,-0.00851396,-0.00757214,-0.00664364,-0.00573676,-0.00486024,-0.00402323,-0.00323533,-0.0025066,-0.00184756,-0.00126921,-0.000783041,-0.000401042,-0.000135705,-0
-0,0.000942924,0.00193594,0.00296443,0.00401526,0.00507667,0.00613822,0.00719077,0.00822633,0.00923803,0.01022,0.0111673,0.0120758,0.0129423,0.0137641,0.0145391,0.0152658,0.0159433,0.0165708,0.017148,0.017675,0.0181518,0.018579,0.0189571,0.0192866,0.0195684,0.0198031,0.0199917,0.0201349,0.0202336,0.0202884,0.0203002,0.0202696,0.0201972,0.0200837,0.0199297,0.0197355,0.0195017,0.0192286,0.0189166,0.018566,0.0181772,0.0177503,0.0172859,0.016784,0.0162451,0.0156695,0.0150575,0.0144097,0.0137265,0.0130085,0.0122564,0.011471,0.010653,0.00980353,0.00892365,0.00801459,0.00707773,0.00611459,0.00512683,0.00411628,0.00308491,0.00203486,0.000968394,-0.000112025,-0.0012038,-0.0023042,-0.00341031,-0.00451911,-0.00562744,-0.00673201,-0.00782944,-0.00891622,-0.00998879,-0.0110435,-0.0120766,-0.0130845,-0.0140633,-0.0150092,-0.0159186,-0.0167878,-0.0176131,-0.018391,-0.019118,-0.0197909,-0.0204065,-0.0209618,-0.0214542,-0.0218809,-0.0222399,-0.022529,-0.0227465,-0.022891,-0.0229615,-0.0229571,-0.0228775,-0.0227228,-0.0224933,-0.0221897,-0.0218134,-0.0213658,-0.0208492,-0.0202658,-0.0196187,-0.0189112,-0.018147,-0.0173304,-0.016466,-0.0155588,-0.0146143,-0.0136385,-0.0126376,-0.0116185,-0.0105883,-0.00955451,-0.0085252,-0.00750873,-0.00651393,-0.00555004,-0.00462671,-0.003754,-0.00294244,-0.00220296,-0.00154693,-0.000986168,-0.000532917,-0.000199843,-0