-0,-0.000835478,-0.00303042,-0.00563467,-0.00792206,-0.00943524,-0.00990778,-0.0091961,-0.00723452,-0.00400735,0.000468681,0.00615556,0.0130014,0.0209456,0.029922,0.0398617,0.0506945,0.0623505,0.0747607,0.0878576,0.101576,0.115853,0.130628,0.145843,0.161443,0.177376,0.193591,0.21004,0.226678,0.243462,0.260348,0.277299,0.294274,0.311237,0.328152,0.344984,0.361698,0.378262,0.394641,0.410803,0.426715,0.442347,0.457664,0.472635,0.487228,0.50141,0.515149,0.528413,0.541168,0.553383,0.565025,0.57606,0.586458,0.596185,0.605211,0.613504,0.621035,0.627772,0.633689,0.638757,0.642951,0.646246,0.64862,0.650052,0.650523,0.650018,0.648524,0.646029,0.642526,0.63801,0.63248,0.625938,0.618391,0.609849,0.600324,0.589835,0.578403,0.566054,0.552819,0.538732,0.523832,0.50816,0.491763,0.474692,0.457001,0.438749,0.419995,0.400806,0.381247,0.36139,0.341306,0.321071,0.300759,0.280449,0.26022,0.240149,0.220317,0.200802,0.181682,0.163034,0.144934,0.127456,0.11067,0.0946457,0.0794474,0.0651367,0.0517711,0.0394034,0.0280813,0.0178471,0.00873695,0.00078026,-0.00600098,-0.0115931,-0.0159919,-0.019204,-0.0212485,-0.0221599,-0.0219908,-0.0208169,-0.0187433,-0.015914,-0.0125255,-0.00884595,-0.00524137,-0.00219976,-0.000309386,-0
-0.000835478,-0.00136046,-0.00188501,-0.0024548,-0.00279378,-0.00261678,-0.00170576,8.59137e-05,0.0028467,0.00662134,0.0114227,0.0172407,0.0240491,0.0318099,0.0404775,0.0500008,0.0603256,0.0713955,0.0831539,0.0955438,0.108509,0.121995,0.135948,0.150316,0.165049,0.180098,0.195417,0.210962,0.226689,0.242557,0.258526,0.274557,0.290614,0.30666,0.322659,0.338579,0.354385,0.370044,0.385525,0.400795,0.415822,0.430576,0.445025,0.459137,0.472883,0.48623,0.499149,0.511608,0.523577,0.535024,0.545921,0.556235,0.565939,0.575001,0.583394,0.591088,0.598057,0.604274,0.609714,0.614351,0.618163,0.62113,0.62323,0.624447,0.624764,0.624168,0.622649,0.620197,0.616807,0.612477,0.607206,0.600999,0.593861,0.585804,0.576841,0.566989,0.556269,0.544707,0.53233,0.519171,0.505266,0.490654,0.475379,0.459485,0.443025,0.426049,0.408615,0.390781,0.372609,0.354161,0.335504,0.316704,0.297832,0.278956,0.260147,0.241476,0.223016,0.204836,0.187006,0.169597,0.152675,0.136306,0.120555,0.105481,0.0911419,0.0775931,0.0648844,0.0530616,0.0421659,0.0322329,0.0232923,0.0153671,0.00847313,0.00261775,-0.00220093,-0.00599545,-0.0087907,-0.010626,-0.0115576,-0.0116625,-0.011042,-0.00982759,-0.00818515,-0.00631857,-0.00446285,-0.0028478,-0.00157882,-0.000309386
-0.00303263,-0.0018869,-0.000696101,0.000491599,0.00181489,0.00346316,0.00561045,0.00839335,0.0119087,0.0162184,0.021356,0.0273329,0.0341434,0.0417688,0.0501811,0.0593452,0.0692211,0.0797654,0.0909325,0.102676,0.114947,0.1277,0.140888,0.154463,0.168382,0.1826,0.197074,0.211763,0.226627,0.241625,0.256721,0.271877,0.287057,0.302227,0.317353,0.332401,0.347338,0.362133,0.376755,0.391171,0.405352,0.419267,0.432885,0.446178,0.459114,0.471665,0.483802,0.495494,0.506714,0.517432,0.527621,0.537252,0.546297,0.55473,0.562524,0.569654,0.576094,0.581822,0.586814,0.591048,0.594506,0.597167,0.599015,0.600035,0.600214,0.599541,0.598007,0.595605,0.592332,0.588187,0.583171,0.577289,0.570549,0.56296,0.554537,0.545296,0.535259,0.524448,0.512891,0.500617,0.48766,0.474056,0.459845,0.44507,0.429775,0.41401,0.397825,0.381274,0.364411,0.347295,0.329984,0.31254,0.295023,0.277497,0.260026,0.242673,0.225501,0.208574,0.191956,0.175706,0.159887,0.144555,0.129768,0.11558,0.10204,0.0891968,0.0770939,0.0657709,0.0552626,0.0455986,0.0368028,0.0288926,0.0218783,0.0157621,0.0105372,0.0061868,0.00268232,-1.79134e-05,-0.00197066,-0.00324981,-0.00394837,-0.00417974,-0.00407686,-0.00378583,-0.00344722,-0.00315181,-0.00284963,-0.00219553
-0.00564784,-0.00246012,0.000494232,0.00330076,0.00609701,0.00904266,0.01229,0.0159678,0.0201766,0.0249889,0.0304529,0.0365959,0.0434287,0.0509487,0.059143,0.0679902,0.0774632,0.0875301,0.0981555,0.109302,0.12093,0.133,0.145471,0.158303,0.171456,0.184889,0.198563,0.212441,0.226483,0.240655,0.254918,0.269239,0.283583,0.297917,0.312207,0.326421,0.340527,0.354495,0.368294,0.381894,0.395265,0.408377,0.421202,0.433711,0.445875,0.457667,0.469057,0.48002,0.490527,0.500552,0.510068,0.519051,0.527473,0.535311,0.54254,0.549138,0.555082,0.560351,0.564924,0.568784,0.571912,0.574292,0.57591,0.576753,0.576811,0.576074,0.574537,0.572193,0.569042,0.565083,0.56032,0.554757,0.548403,0.541269,0.533368,0.524717,0.515336,0.505246,0.494473,0.483044,0.470992,0.458349,0.445152,0.431439,0.417252,0.402636,0.387635,0.372298,0.356676,0.340819,0.32478,0.308615,0.292377,0.276125,0.259913,0.243799,0.22784,0.212091,0.196609,0.181448,0.166661,0.152299,0.138413,0.12505,0.112253,0.100065,0.0885219,0.0776584,0.0675034,0.058081,0.0494099,0.0415026,0.0343646,0.027994,0.0223801,0.0175032,0.0133324,0.00982559,0.00692748,0.00456903,0.00266694,0.00112462,-0.000164164,-0.00130655,-0.00239293,-0.00346592,-0.00447444,-0.00522815
-0.00795986,-0.00280258,0.00183078,0.0061196,0.0102301,0.014322,0.0185417,0.0230154,0.0278465,0.033115,0.0388795,0.0451797,0.0520393,0.0594689,0.0674681,0.0760278,0.0851316,0.0947581,0.104881,0.115472,0.126499,0.137928,0.149726,0.161856,0.174284,0.186973,0.199888,0.212994,0.226255,0.239638,0.253108,0.266631,0.280175,0.293708,0.307198,0.320613,0.333924,0.3471,0.360112,0.37293,0.385525,0.39787,0.409936,0.421696,0.433123,0.444189,0.454869,0.465136,0.474966,0.484332,0.493211,0.501579,0.509412,0.516688,0.523385,0.529483,0.534961,0.539801,0.543985,0.547496,0.55032,0.552443,0.553853,0.554539,0.554493,0.553708,0.552179,0.549903,0.54688,0.543111,0.538599,0.533352,0.527377,0.520686,0.513292,0.505211,0.496462,0.487066,0.477045,0.466428,0.455241,0.443516,0.431285,0.418585,0.405453,0.391928,0.378052,0.363868,0.34942,0.334755,0.31992,0.304964,0.289935,0.274884,0.25986,0.244914,0.230095,0.215454,0.20104,0.1869,0.173081,0.159628,0.146585,0.133992,0.121888,0.110308,0.0992839,0.0888442,0.0790128,0.0698089,0.0612465,0.0533337,0.0460721,0.0394564,0.0334731,0.0281001,0.0233058,0.0190484,0.015275,0.0119216,0.00891364,0.00616765,0.00359524,0.00111064,-0.00135739,-0.00384914,-0.00635773,-0.00882836
-0.00951111,-0.0026247,0.00351031,0.00911711,0.0143841,0.0194778,0.0245455,0.029714,0.0350895,0.0407577,0.046785,0.0532207,0.0600986,0.0674401,0.0752551,0.0835447,0.0923025,0.101516,0.111167,0.121235,0.131694,0.142518,0.153677,0.165142,0.176882,0.188864,0.201056,0.213425,0.225941,0.238569,0.251279,0.264039,0.276818,0.289584,0.302307,0.314957,0.327505,0.339922,0.352179,0.364248,0.376101,0.387711,0.399052,0.410096,0.420818,0.431192,0.441195,0.4508,0.459985,0.468726,0.477,0.484786,0.492062,0.498808,0.505005,0.510633,0.515676,0.520116,0.523938,0.527129,0.529674,0.531564,0.532787,0.533336,0.533204,0.532385,0.530878,0.528679,0.525791,0.522216,0.517957,0.513023,0.507422,0.501165,0.494265,0.486737,0.4786,0.469874,0.460579,0.45074,0.440383,0.429537,0.418231,0.406498,0.394371,0.381886,0.369079,0.35599,0.342658,0.329124,0.315429,0.301618,0.287732,0.273816,0.259913,0.246069,0.232326,0.218728,0.205318,0.192138,0.179228,0.166628,0.154374,0.142502,0.131044,0.120031,0.109489,0.099442,0.0899086,0.0809037,0.0724373,0.0645138,0.0571315,0.0502821,0.04395,0.0381118,0.0327355,0.0277801,0.0231955,0.018922,0.0148919,0.0110308,0.0072606,0.00350503,-0.00030438,-0.00422166,-0.00828476,-0.0125276
-0.0100283,-0.00169992,0.00571654,0.0124558,0.0187155,0.0246667,0.0304581,0.0362179,0.0420549,0.0480589,0.0543024,0.0608417,0.0677189,0.0749638,0.0825952,0.0906226,0.0990479,0.107866,0.117067,0.126636,0.136555,0.146802,0.157354,0.168184,0.179266,0.190572,0.202073,0.213738,0.225539,0.237446,0.249428,0.261455,0.273499,0.285529,0.297516,0.309432,0.321248,0.332937,0.34447,0.355821,0.366963,0.377869,0.388515,0.398875,0.408924,0.418638,0.427994,0.43697,0.445542,0.453689,0.46139,0.468626,0.475377,0.481624,0.48735,0.492539,0.497175,0.501243,0.504731,0.507626,0.509918,0.511598,0.512656,0.513088,0.512887,0.512051,0.510578,0.508469,0.505724,0.502347,0.498344,0.493723,0.488491,0.48266,0.476244,0.469256,0.461714,0.453635,0.445041,0.435952,0.426394,0.416392,0.405973,0.395165,0.383999,0.372506,0.360719,0.348673,0.336401,0.323942,0.31133,0.298603,0.2858,0.272958,0.260117,0.247313,0.234586,0.221972,0.209509,0.197233,0.185178,0.173378,0.161865,0.150668,0.139816,0.129333,0.119241,0.109559,0.100301,0.0914795,0.0830995,0.0751627,0.0676644,0.0605941,0.0539346,0.0476616,0.0417431,0.0361392,0.0308019,0.0256756,0.0206972,0.0157981,0.0109059,0.00594693,0.000849366,-0.00445619,-0.0100403,-0.0159875
-0.00935421,0.00013158,0.00859874,0.0162765,0.0233616,0.030025,0.0364152,0.0426611,0.0488728,0.0551433,0.0615492,0.0681525,0.0750016,0.0821329,0.0895725,0.0973369,0.105435,0.113869,0.122634,0.131723,0.141122,0.150815,0.160783,0.171004,0.181455,0.192112,0.202948,0.213937,0.225052,0.236265,0.247547,0.258871,0.270208,0.281531,0.292811,0.304021,0.315134,0.326123,0.336962,0.347623,0.358083,0.368315,0.378296,0.388001,0.397407,0.406491,0.415232,0.423607,0.431597,0.439181,0.44634,0.453055,0.459311,0.465088,0.470374,0.475152,0.479409,0.483133,0.486313,0.488939,0.491001,0.492493,0.493408,0.493742,0.49349,0.492653,0.491229,0.489219,0.486626,0.483454,0.479711,0.475402,0.470537,0.465128,0.459186,0.452726,0.445763,0.438315,0.430399,0.422037,0.413249,0.404059,0.394491,0.384571,0.374326,0.363782,0.35297,0.341919,0.330659,0.319222,0.30764,0.295944,0.284169,0.272347,0.26051,0.248692,0.236925,0.225242,0.213673,0.202249,0.191,0.179955,0.169139,0.158577,0.148293,0.138307,0.128636,0.119295,0.110295,0.101643,0.0933428,0.0853921,0.0777842,0.0705069,0.0635416,0.0568634,0.0504406,0.0442344,0.0381989,0.0322811,0.0264217,0.0205556,0.0146131,0.00852105,0.00220302,-0.00442184,-0.0114438,-0.0189725
-0.00740288,0.00297612,0.0122696,0.0206936,0.0284377,0.0356688,0.0425332,0.0491587,0.055656,0.0621196,0.0686293,0.0752509,0.0820376,0.0890312,0.0962635,0.103757,0.111526,0.119579,0.127918,0.136537,0.145431,0.154587,0.16399,0.173622,0.183465,0.193496,0.203692,0.214029,0.224483,0.235026,0.245635,0.25628,0.266937,0.277579,0.288178,0.29871,0.309146,0.319463,0.329633,0.339633,0.349438,0.359024,0.368368,0.377446,0.386237,0.39472,0.402874,0.410678,0.418114,0.425163,0.431809,0.438033,0.443821,0.449159,0.454031,0.458426,0.462331,0.465738,0.468635,0.471015,0.472872,0.474198,0.474991,0.475246,0.474962,0.474139,0.472777,0.470878,0.468447,0.465488,0.462008,0.458014,0.453515,0.448524,0.44305,0.437107,0.430711,0.423876,0.416621,0.408962,0.400919,0.392514,0.383767,0.374701,0.36534,0.355707,0.345828,0.335729,0.325436,0.314975,0.304375,0.293662,0.282865,0.272012,0.26113,0.250247,0.239391,0.228589,0.217866,0.207249,0.196763,0.186429,0.176271,0.166309,0.15656,0.147042,0.137767,0.128746,0.119988,0.111496,0.10327,0.0953067,0.087597,0.080127,0.0728773,0.0658227,0.0589318,0.0521668,0.0454837,0.0388316,0.0321539,0.0253881,0.0184662,0.0113147,0.00385447,-0.004002,-0.0123545,-0.0213222
-0.00413272,0.00690069,0.0168103,0.0257961,0.0340376,0.0416949,0.0489102,0.0558091,0.0625014,0.0690824,0.0756333,0.0822228,0.0889077,0.0957339,0.102738,0.109946,0.117379,0.125049,0.132962,0.14112,0.149518,0.158148,0.167001,0.176062,0.185313,0.194737,0.204313,0.21402,0.223834,0.233731,0.243688,0.253679,0.263679,0.273664,0.283607,0.293483,0.303268,0.312937,0.322465,0.331829,0.341005,0.349971,0.358703,0.367182,0.375385,0.383294,0.390887,0.398148,0.405058,0.411601,0.41776,0.423521,0.428869,0.433793,0.438279,0.442317,0.445897,0.449011,0.451651,0.45381,0.455483,0.456666,0.457356,0.457552,0.457253,0.456459,0.455173,0.453398,0.451138,0.448399,0.445187,0.441511,0.437379,0.432802,0.427791,0.422358,0.416518,0.410284,0.403671,0.396697,0.389378,0.381732,0.373779,0.365537,0.357028,0.348271,0.339289,0.330103,0.320736,0.31121,0.301548,0.291774,0.28191,0.27198,0.262008,0.252015,0.242026,0.23206,0.222142,0.21229,0.202526,0.192868,0.183333,0.173937,0.164695,0.155619,0.146719,0.138001,0.129472,0.121131,0.112978,0.105004,0.0972015,0.0895536,0.0820407,0.0746374,0.0673129,0.0600303,0.052747,0.0454145,0.037978,0.0303773,0.0225458,0.0144108,0.00589221,-0.00309963,-0.0126669,-0.0229292
0.000470313,0.0119443,0.0222765,0.0316508,0.0402352,0.048182,0.0556279,0.0626953,0.069492,0.0761129,0.0826401,0.0891439,0.0956835,0.102308,0.109057,0.115962,0.123046,0.130325,0.137811,0.145507,0.153414,0.161528,0.169841,0.178342,0.187017,0.195849,0.204823,0.213916,0.223109,0.23238,0.241706,0.251063,0.260428,0.269777,0.279086,0.28833,0.297486,0.306531,0.31544,0.324191,0.332763,0.341133,0.349279,0.357183,0.364824,0.372183,0.379243,0.385986,0.392396,0.398458,0.404157,0.409481,0.414416,0.418951,0.423077,0.426784,0.430064,0.432909,0.435315,0.437275,0.438787,0.439848,0.440456,0.44061,0.440313,0.439564,0.438368,0.436729,0.43465,0.432138,0.429201,0.425846,0.422082,0.417919,0.413367,0.408438,0.403144,0.397499,0.391516,0.385209,0.378594,0.371687,0.364503,0.357059,0.349373,0.341462,0.333344,0.325037,0.31656,0.307931,0.29917,0.290294,0.281324,0.272278,0.263174,0.254032,0.244868,0.235701,0.226548,0.217426,0.208349,0.199333,0.19039,0.181533,0.172772,0.164117,0.155572,0.147144,0.138833,0.130638,0.122556,0.114577,0.10669,0.0988792,0.0911239,0.0833988,0.0756735,0.0679122,0.0600737,0.0521114,0.0439728,0.0355995,0.0269271,0.0178844,0.00839244,-0.00163714,-0.0123043,-0.0237237
0.00640297,0.0181266,0.0287046,0.038306,0.0470876,0.055193,0.0627532,0.0698862,0.0766975,0.0832807,0.0897178,0.0960799,0.102428,0.108813,0.115277,0.121855,0.128573,0.13545,0.142501,0.149734,0.157151,0.164752,0.172532,0.180482,0.188591,0.196845,0.205229,0.213725,0.222314,0.230975,0.239687,0.248429,0.257178,0.265912,0.274606,0.283239,0.291787,0.300229,0.308541,0.316703,0.324692,0.332489,0.340073,0.347426,0.354528,0.361362,0.367912,0.374162,0.380097,0.385703,0.390967,0.395878,0.400424,0.404597,0.408387,0.411786,0.414789,0.417389,0.419583,0.421367,0.422739,0.423697,0.424241,0.424373,0.424094,0.423406,0.422313,0.420821,0.418934,0.416659,0.414002,0.410972,0.407578,0.403828,0.399733,0.395303,0.39055,0.385484,0.380118,0.374465,0.368538,0.36235,0.355915,0.349246,0.342358,0.335265,0.327983,0.320524,0.312906,0.305142,0.297247,0.289236,0.281124,0.272925,0.264655,0.256327,0.247954,0.239552,0.231131,0.222705,0.214285,0.205882,0.197505,0.189162,0.180862,0.172608,0.164404,0.156253,0.148153,0.1401,0.132089,0.124109,0.116149,0.10819,0.100213,0.0921917,0.0840968,0.0758936,0.0675425,0.0589985,0.0502114,0.0411253,0.0316781,0.0218013,0.0114188,0.00044588,-0.0112124,-0.0236627
0.0136513,0.0254533,0.0361162,0.0457956,0.0546374,0.0627774,0.07034,0.0774388,0.0841764,0.0906446,0.0969245,0.103087,0.109195,0.1153,0.121447,0.127671,0.134003,0.140463,0.14707,0.153832,0.160757,0.167846,0.175095,0.1825,0.190051,0.197736,0.205542,0.213453,0.221451,0.229517,0.237632,0.245775,0.253925,0.262061,0.270159,0.2782,0.28616,0.294018,0.301754,0.309346,0.316775,0.32402,0.331063,0.337886,0.344472,0.350804,0.356867,0.362647,0.36813,0.373303,0.378156,0.382677,0.386859,0.390691,0.394168,0.397283,0.400032,0.402409,0.404413,0.406041,0.407293,0.408168,0.408667,0.408793,0.408548,0.407935,0.40696,0.405626,0.403941,0.40191,0.399542,0.396842,0.39382,0.390485,0.386846,0.382911,0.378692,0.374199,0.369441,0.36443,0.359177,0.353692,0.347987,0.342074,0.335962,0.329665,0.323193,0.316557,0.30977,0.302841,0.295783,0.288607,0.281322,0.273941,0.266472,0.258928,0.251316,0.243647,0.23593,0.228173,0.220384,0.212569,0.204735,0.196887,0.189028,0.18116,0.173285,0.165402,0.157506,0.149594,0.141656,0.133682,0.125658,0.117567,0.109388,0.101095,0.0926605,0.0840502,0.0752263,0.0661458,0.056761,0.0470185,0.0368593,0.0262184,0.0150237,0.00319561,-0.00935391,-0.0227223
0.0221946,0.033921,0.044522,0.0541415,0.0629159,0.0709729,0.0784311,0.0853994,0.0919772,0.0982539,0.10431,0.110215,0.116033,0.121816,0.127609,0.133451,0.139373,0.145399,0.151547,0.15783,0.164257,0.17083,0.17755,0.184413,0.191411,0.198534,0.205771,0.213107,0.220525,0.228009,0.23554,0.243099,0.250665,0.258218,0.265738,0.273203,0.280592,0.287886,0.295064,0.302105,0.308992,0.315706,0.322228,0.328543,0.334633,0.340484,0.346082,0.351413,0.356466,0.361228,0.365692,0.369846,0.373684,0.377199,0.380385,0.383237,0.385752,0.387928,0.389762,0.391254,0.392404,0.393214,0.393686,0.393823,0.393627,0.393104,0.392258,0.391096,0.389622,0.387845,0.385771,0.383407,0.380762,0.377843,0.374659,0.371218,0.36753,0.363603,0.359445,0.355067,0.350476,0.345681,0.340692,0.335517,0.330164,0.324642,0.31896,0.313125,0.307145,0.301028,0.294782,0.288413,0.28193,0.275339,0.268646,0.261859,0.254982,0.248022,0.240984,0.233872,0.226692,0.219445,0.212135,0.204763,0.197331,0.189838,0.182282,0.17466,0.166966,0.159193,0.151332,0.14337,0.135294,0.127085,0.118723,0.110183,0.101437,0.0924519,0.0831927,0.0736181,0.0636829,0.0533367,0.0425241,0.031184,0.0192494,0.00664678,-0.00670438,-0.0208917
0.0320087,0.0435201,0.053925,0.0633571,0.0719445,0.0798078,0.0870597,0.0938049,0.100139,0.10615,0.111915,0.117505,0.122982,0.128398,0.133802,0.13923,0.144717,0.150287,0.155961,0.161753,0.167673,0.173727,0.179915,0.186236,0.192684,0.19925,0.205923,0.212692,0.21954,0.226452,0.233411,0.240398,0.247394,0.254379,0.261334,0.268239,0.275074,0.28182,0.288456,0.294965,0.301329,0.307529,0.31355,0.319374,0.324989,0.330378,0.335531,0.340434,0.345076,0.349449,0.353543,0.357351,0.360866,0.364084,0.366999,0.369609,0.37191,0.373903,0.375587,0.376961,0.378029,0.378792,0.379252,0.379415,0.379283,0.378863,0.37816,0.37718,0.375928,0.374413,0.37264,0.370618,0.368353,0.365853,0.363125,0.360178,0.357018,0.353653,0.35009,0.346336,0.342399,0.338284,0.333998,0.329548,0.324939,0.320176,0.315266,0.310212,0.305021,0.299695,0.294239,0.288658,0.282954,0.277131,0.271193,0.26514,0.258977,0.252705,0.246326,0.23984,0.23325,0.226554,0.219753,0.212845,0.205829,0.1987,0.191456,0.18409,0.176596,0.168964,0.161185,0.153244,0.145127,0.136815,0.128289,0.119524,0.110492,0.101164,0.0915042,0.0814748,0.071033,0.0601317,0.0487195,0.0367396,0.0241305,0.0108253,-0.00324867,-0.0181691
0.0430672,0.0542365,0.0643219,0.0734487,0.0817374,0.0893024,0.0962513,0.102684,0.108694,0.114365,0.119775,0.124991,0.130075,0.135082,0.140057,0.14504,0.150063,0.155155,0.160337,0.165624,0.171027,0.176553,0.182205,0.187983,0.19388,0.199891,0.206006,0.212213,0.218499,0.224848,0.231244,0.23767,0.244107,0.250537,0.256941,0.2633,0.269595,0.275808,0.281919,0.287911,0.293768,0.299472,0.305008,0.31036,0.315517,0.320463,0.325188,0.329682,0.333933,0.337935,0.341679,0.34516,0.348372,0.351311,0.353974,0.35636,0.358467,0.360295,0.361846,0.363121,0.364122,0.364853,0.365318,0.365522,0.365468,0.365164,0.364616,0.363828,0.362808,0.361563,0.3601,0.358425,0.356545,0.354467,0.352197,0.349743,0.347111,0.344305,0.341333,0.338199,0.334908,0.331465,0.327873,0.324137,0.320259,0.316243,0.312091,0.307804,0.303385,0.298834,0.294152,0.289341,0.284399,0.279327,0.274124,0.268789,0.263322,0.257722,0.251985,0.246111,0.240096,0.233939,0.227635,0.221181,0.214572,0.207802,0.200866,0.193755,0.186461,0.178973,0.17128,0.163369,0.155222,0.146823,0.13815,0.129181,0.11989,0.110247,0.100219,0.0897705,0.0788622,0.0674502,0.0554868,0.0429204,0.029695,0.0157503,0.00102176,-0.014559
0.055343,0.0660536,0.0757055,0.0844171,0.0923025,0.0994707,0.106025,0.11206,0.117668,0.122928,0.127917,0.132702,0.137344,0.141895,0.146402,0.150905,0.155438,0.160027,0.164697,0.169462,0.174336,0.179326,0.184435,0.189665,0.195011,0.200468,0.206027,0.211677,0.217405,0.223198,0.22904,0.234913,0.240802,0.246687,0.252552,0.258377,0.264145,0.269838,0.275438,0.280929,0.286293,0.291516,0.296583,0.30148,0.306195,0.310715,0.31503,0.319131,0.323009,0.326657,0.330069,0.33324,0.336166,0.338844,0.341273,0.343452,0.345382,0.347063,0.348497,0.349688,0.350638,0.351353,0.351837,0.352095,0.352133,0.351957,0.351574,0.350989,0.350211,0.349244,0.348097,0.346775,0.345285,0.343633,0.341825,0.339865,0.33776,0.335513,0.333129,0.330611,0.327962,0.325184,0.32228,0.31925,0.316095,0.312816,0.309411,0.30588,0.302221,0.298433,0.294512,0.290457,0.286264,0.281929,0.277449,0.272819,0.268036,0.263093,0.257988,0.252714,0.247265,0.241637,0.235823,0.229816,0.223609,0.217194,0.210564,0.203708,0.196616,0.189278,0.181679,0.173806,0.165642,0.157169,0.148368,0.139216,0.129688,0.119756,0.10939,0.0985557,0.0872171,0.075334,0.0628629,0.049757,0.035966,0.0214363,0.00611108,-0.010069
0.0688089,0.078953,0.0880656,0.0962594,0.103643,0.110322,0.116393,0.12195,0.127079,0.13186,0.136366,0.140663,0.144811,0.148861,0.152861,0.15685,0.160861,0.164924,0.169059,0.173286,0.177616,0.182059,0.186618,0.191294,0.196086,0.200987,0.20599,0.211086,0.216261,0.221503,0.226796,0.232125,0.237474,0.242824,0.24816,0.253462,0.258715,0.2639,0.269002,0.274003,0.27889,0.283646,0.288258,0.292714,0.297002,0.301111,0.305032,0.308756,0.312276,0.315587,0.318682,0.321559,0.324216,0.326649,0.32886,0.330848,0.332615,0.334164,0.335497,0.336618,0.337532,0.338244,0.33876,0.339085,0.339227,0.33919,0.338983,0.338612,0.338083,0.337403,0.336579,0.335617,0.334522,0.3333,0.331955,0.330493,0.328916,0.327228,0.325431,0.323528,0.321518,0.319402,0.317181,0.314852,0.312414,0.309865,0.3072,0.304417,0.301511,0.298476,0.295308,0.292,0.288546,0.284939,0.281173,0.277239,0.27313,0.268839,0.264356,0.259675,0.254787,0.249682,0.244353,0.23879,0.232984,0.226924,0.2206,0.214002,0.207117,0.199934,0.192437,0.184612,0.176444,0.167913,0.159,0.149684,0.139941,0.129745,0.119067,0.107877,0.0961405,0.0838215,0.0708807,0.0572761,0.0429631,0.0278944,0.0120208,-0.00470872
0.083438,0.0929154,0.10139,0.10897,0.115759,0.121859,0.127364,0.132364,0.136943,0.141177,0.145139,0.148892,0.152496,0.156001,0.159454,0.162893,0.166353,0.169861,0.173441,0.17711,0.180881,0.184764,0.188763,0.192879,0.197111,0.201455,0.205902,0.210443,0.215068,0.219762,0.224513,0.229304,0.234119,0.238943,0.243758,0.248547,0.253294,0.257983,0.262597,0.267121,0.271541,0.275843,0.280014,0.284042,0.287917,0.291628,0.295169,0.29853,0.301707,0.304694,0.307488,0.310086,0.312487,0.31469,0.316697,0.318508,0.320127,0.321557,0.322802,0.323867,0.324758,0.32548,0.326039,0.326443,0.326698,0.326812,0.32679,0.326641,0.32637,0.325985,0.325491,0.324894,0.3242,0.323412,0.322535,0.321573,0.320527,0.319399,0.31819,0.3169,0.315529,0.314075,0.312534,0.310904,0.309179,0.307356,0.305428,0.303389,0.30123,0.298944,0.296523,0.293958,0.291238,0.288355,0.285297,0.282054,0.278616,0.274971,0.271109,0.267018,0.262687,0.258105,0.25326,0.248141,0.242737,0.237034,0.231021,0.224685,0.218014,0.210993,0.203608,0.195843,0.187682,0.179107,0.170099,0.160638,0.1507,0.140262,0.129297,0.117778,0.105672,0.0929479,0.0795703,0.0655018,0.0507033,0.0351339,0.0187512,0.00151198
0.0992045,0.107921,0.115665,0.12254,0.128648,0.134085,0.138944,0.143312,0.14727,0.150893,0.154251,0.157406,0.160416,0.163331,0.166196,0.169051,0.171928,0.174856,0.177856,0.180948,0.184144,0.187453,0.190881,0.194429,0.198095,0.201877,0.205765,0.209752,0.213827,0.217977,0.222188,0.226445,0.230733,0.235036,0.239338,0.243622,0.247873,0.252074,0.256211,0.260269,0.264233,0.268092,0.271832,0.275444,0.278918,0.282244,0.285416,0.288428,0.291273,0.29395,0.296455,0.298787,0.300945,0.302931,0.304746,0.306393,0.307876,0.3092,0.310369,0.31139,0.312268,0.31301,0.313624,0.314117,0.314496,0.314768,0.314941,0.315021,0.315016,0.314932,0.314775,0.31455,0.314261,0.313913,0.313508,0.313048,0.312536,0.311971,0.311352,0.310678,0.309947,0.309153,0.308294,0.307362,0.306351,0.305254,0.304061,0.302764,0.301352,0.299815,0.29814,0.296316,0.294329,0.292168,0.289818,0.287266,0.284498,0.281501,0.278259,0.27476,0.270988,0.266931,0.262574,0.257903,0.252904,0.247563,0.241868,0.235802,0.229352,0.222503,0.21524,0.207547,0.199407,0.190803,0.181716,0.172126,0.162013,0.151354,0.140124,0.128298,0.115849,0.102746,0.0889596,0.0744564,0.0592026,0.0431631,0.0263023,0.00858404
0.116083,0.12395,0.130875,0.13696,0.142302,0.146997,0.151135,0.154798,0.158068,0.161017,0.163712,0.166215,0.168583,0.170864,0.173102,0.175337,0.1776,0.179919,0.182316,0.18481,0.187413,0.190134,0.192979,0.195949,0.199043,0.202257,0.205584,0.209015,0.212539,0.216145,0.219819,0.223546,0.227312,0.2311,0.234894,0.23868,0.242442,0.246164,0.249831,0.253431,0.256949,0.260374,0.263695,0.266901,0.269983,0.272935,0.27575,0.278422,0.280948,0.283325,0.285552,0.287629,0.289556,0.291335,0.292969,0.294463,0.295821,0.297049,0.298152,0.299138,0.300014,0.300786,0.301463,0.302054,0.302564,0.303003,0.303378,0.303696,0.303964,0.304187,0.304373,0.304524,0.304646,0.304742,0.304813,0.304861,0.304886,0.304887,0.304862,0.304807,0.304718,0.304588,0.304412,0.304181,0.303886,0.303517,0.303062,0.30251,0.301847,0.30106,0.300134,0.299053,0.297803,0.296368,0.294729,0.292872,0.290779,0.288433,0.285817,0.282914,0.279707,0.276181,0.272318,0.268102,0.263517,0.258548,0.253178,0.247392,0.241174,0.234508,0.22738,0.219771,0.211666,0.203047,0.193897,0.184196,0.173926,0.163064,0.151589,0.139478,0.126706,0.113248,0.0990752,0.0841609,0.0684759,0.0519904,0.0346749,0.0165
0.13405,0.140983,0.147006,0.152218,0.156716,0.160592,0.163935,0.166825,0.169341,0.171554,0.17353,0.17533,0.177007,0.17861,0.180182,0.181761,0.183379,0.185061,0.186831,0.188705,0.190697,0.192814,0.195063,0.197445,0.199958,0.202598,0.205359,0.208231,0.211205,0.214267,0.217405,0.220604,0.223849,0.227126,0.230419,0.233712,0.23699,0.240239,0.243445,0.246594,0.249674,0.252674,0.255582,0.258391,0.261092,0.263678,0.266145,0.268487,0.270703,0.27279,0.274748,0.276579,0.278283,0.279865,0.281328,0.282678,0.28392,0.28506,0.286106,0.287065,0.287946,0.288756,0.289504,0.290199,0.290849,0.291461,0.292045,0.292606,0.293152,0.293689,0.294222,0.294756,0.295293,0.295838,0.29639,0.29695,0.297517,0.298088,0.29866,0.299228,0.299785,0.300324,0.300836,0.30131,0.301736,0.3021,0.302388,0.302586,0.302678,0.302648,0.302477,0.302147,0.301641,0.300938,0.300019,0.298864,0.297454,0.295768,0.293787,0.29149,0.288859,0.285873,0.282515,0.278765,0.274606,0.270018,0.264986,0.259492,0.253519,0.247051,0.24007,0.23256,0.224504,0.215886,0.206688,0.196893,0.186481,0.175434,0.163732,0.151354,0.138278,0.124482,0.109943,0.0946364,0.0785385,0.0616249,0.0438714,0.0252549
0.153082,0.159001,0.164042,0.168303,0.171881,0.174865,0.177341,0.179392,0.181091,0.182509,0.183711,0.184756,0.185695,0.186578,0.187445,0.188333,0.189273,0.190291,0.191408,0.192641,0.194003,0.195501,0.19714,0.198922,0.200845,0.202904,0.205093,0.207403,0.209822,0.212339,0.214941,0.217613,0.220341,0.22311,0.225904,0.228708,0.231508,0.23429,0.237039,0.239744,0.242392,0.244973,0.247477,0.249896,0.252222,0.25445,0.256576,0.258596,0.260508,0.262313,0.26401,0.265602,0.267092,0.268484,0.269783,0.270995,0.272128,0.273187,0.274182,0.275122,0.276014,0.276868,0.277693,0.278498,0.279292,0.280083,0.28088,0.281689,0.282518,0.283373,0.284258,0.285179,0.286137,0.287134,0.288171,0.289248,0.290361,0.291508,0.292683,0.293879,0.295089,0.296302,0.297509,0.298695,0.299849,0.300953,0.301993,0.30295,0.303806,0.304542,0.305136,0.305568,0.305816,0.305857,0.30567,0.30523,0.304516,0.303503,0.30217,0.300493,0.298451,0.296021,0.293182,0.289912,0.286193,0.282003,0.277324,0.272137,0.266424,0.260167,0.253349,0.245954,0.237963,0.229361,0.220132,0.210257,0.19972,0.188504,0.17659,0.16396,0.150596,0.136479,0.121588,0.105904,0.0894065,0.0720769,0.053896,0.0348463
0.173156,0.177984,0.181966,0.185202,0.187786,0.189807,0.191351,0.192496,0.193318,0.193884,0.194258,0.194497,0.194653,0.194773,0.194896,0.195057,0.195289,0.195614,0.196053,0.196624,0.197336,0.198198,0.199213,0.200383,0.201706,0.203176,0.204787,0.206528,0.20839,0.210361,0.212425,0.21457,0.216782,0.219043,0.221341,0.22366,0.225985,0.228303,0.230601,0.232866,0.235087,0.237255,0.239359,0.241393,0.243351,0.245227,0.247018,0.248721,0.250336,0.251864,0.253306,0.254666,0.255946,0.257153,0.258293,0.259373,0.260401,0.261385,0.262334,0.263257,0.264165,0.265067,0.265973,0.266892,0.267834,0.268807,0.269821,0.270882,0.271998,0.273174,0.274415,0.275726,0.277108,0.278563,0.28009,0.281688,0.283353,0.28508,0.286864,0.288695,0.290564,0.292459,0.294368,0.296276,0.298167,0.300023,0.301825,0.303553,0.305186,0.3067,0.308074,0.309282,0.310299,0.311101,0.311661,0.311953,0.311951,0.31163,0.310963,0.309924,0.308488,0.306632,0.30433,0.30156,0.298299,0.294525,0.290217,0.285355,0.279919,0.273892,0.267255,0.259991,0.252082,0.243513,0.234267,0.224329,0.213682,0.202311,0.1902,0.177334,0.163695,0.149268,0.134036,0.117985,0.101097,0.0833588,0.0647557,0.0452754
0.194251,0.197913,0.200764,0.202902,0.204422,0.205412,0.205957,0.206135,0.206019,0.205677,0.205171,0.204556,0.203884,0.203198,0.202539,0.201941,0.201431,0.201035,0.200772,0.200657,0.2007,0.200908,0.201285,0.201831,0.202542,0.203415,0.20444,0.205608,0.206908,0.208328,0.209853,0.21147,0.213164,0.21492,0.216723,0.218557,0.22041,0.222267,0.224116,0.225945,0.227743,0.229501,0.23121,0.232863,0.234456,0.235984,0.237444,0.238835,0.240157,0.241412,0.242602,0.243733,0.244807,0.245833,0.246818,0.247768,0.248694,0.249605,0.25051,0.251421,0.252346,0.253298,0.254287,0.255322,0.256413,0.257571,0.258803,0.260118,0.261523,0.263022,0.264622,0.266326,0.268136,0.270051,0.272072,0.274196,0.276418,0.278732,0.281131,0.283604,0.286141,0.288728,0.291349,0.29399,0.296629,0.299249,0.301827,0.304341,0.306766,0.309076,0.311246,0.313249,0.315055,0.316636,0.317964,0.319009,0.319742,0.320134,0.320155,0.319776,0.318971,0.317711,0.315969,0.313721,0.31094,0.307603,0.303688,0.299172,0.294036,0.288258,0.281821,0.274707,0.266898,0.258379,0.249134,0.239148,0.228406,0.216895,0.2046,0.191507,0.177604,0.162878,0.147314,0.130902,0.113629,0.0954852,0.0764603,0.0565469