-0,-0,-0,-0,-0,-0,-0,-0,-0,-0,-0,-0,-0,-0,-0,-0,-0,-0,-0,-0,-0,-0,-0,-0,-0,-0,-0,-0,-0,-0,-0,-0,-0,-0,-0,-0,-0,-0,-0,-0,-0,-0,-0,-0,-0,-0,-0,-0,-0,-0,-0,-0,-0,-0,-0,-0,-0,-0,-0,-0,-0,-0,-0,-0,-0,-0,-0,-0,-0,-0,-0,-0,-0,-0,-0,-0,-0,-0,-0,-0,-0,-0,-0,-0,-0,-0,-0,-0,-0,-0,-0,-0,-0,-0,-0,-0,-0,-0,-0,-0,-0,-0,-0,-0,-0,-0,-0,-0,-0,-0,-0,-0,-0,-0,-0,-0,-0,-0,-0,-0,-0,-0,-0,-0,-0,-0,-0,-0
-0,2.71594e-08,1.00764e-07,1.89747e-07,2.69828e-07,3.25488e-07,3.47548e-07,3.30948e-07,2.73271e-07,1.73803e-07,3.29523e-08,-1.48135e-07,-3.67824e-07,-6.24166e-07,-9.15016e-07,-1.23812e-06,-1.59117e-06,-1.97185e-06,-2.3779e-06,-2.80707e-06,-3.2572e-06,-3.7262e-06,-4.21207e-06,-4.71287e-06,-5.22678e-06,-5.75205e-06,-6.28701e-06,-6.83006e-06,-7.3797e-06,-7.93446e-06,-8.49297e-06,-9.05389e-06,-9.61594e-06,-1.01779e-05,-1.07385e-05,-1.12966e-05,-1.18511e-05,-1.24008e-05,-1.29446e-05,-1.34815e-05,-1.40102e-05,-1.45297e-05,-1.5039e-05,-1.55369e-05,-1.60223e-05,-1.64941e-05,-1.69512e-05,-1.73925e-05,-1.78169e-05,-1.82232e-05,-1.86103e-05,-1.89772e-05,-1.93227e-05,-1.96457e-05,-1.99451e-05,-2.02198e-05,-2.04689e-05,-2.06913e-05,-2.0886e-05,-2.10521e-05,-2.11888e-05,-2.12952e-05,-2.13705e-05,-2.1414e-05,-2.14252e-05,-2.14035e-05,-2.13484e-05,-2.12597e-05,-2.1137e-05,-2.09804e-05,-2.07896e-05,-2.0565e-05,-2.03066e-05,-2.00149e-05,-1.96904e-05,-1.93338e-05,-1.89457e-05,-1.85271e-05,-1.80792e-05,-1.76031e-05,-1.71001e-05,-1.65717e-05,-1.60197e-05,-1.54456e-05,-1.48514e-05,-1.42391e-05,-1.36109e-05,-1.29688e-05,-1.23152e-05,-1.16526e-05,-1.09833e-05,-1.031e-05,-9.6351e-06,-8.96133e-06,-8.2913e-06,-7.62766e-06,-6.97307e-06,-6.33016e-06,-5.70152e-06,-5.08972e-06,-4.49725e-06,-3.92653e-06,-3.37988e-06,-2.85954e-06,-2.36761e-06,-1.90607e-06,-1.47674e-06,-1.0813e-06,-7.21224e-07,-3.97808e-07,-1.12131e-07,1.34964e-07,3.42892e-07,5.11359e-07,6.40397e-07,7.30408e-07,7.82234e-07,7.97226e-07,7.77366e-07,7.25411e-07,6.45112e-07,5.41519e-07,4.21421e-07,2.93965e-07,1.71454e-07,7.00293e-08,8.66124e-09,-0
-0,1.00847e-07,3.17726e-07,5.6289e-07,7.67871e-07,8.85044e-07,8.83516e-07,7.44588e-07,4.58168e-07,2.01675e-08,-5.69313e-07,-1.30726e-06,-2.18863e-06,-3.20703e-06,-4.35513e-06,-5.62506e-06,-7.00859e-06,-8.4974e-06,-1.00831e-05,-1.17576e-05,-1.35127e-05,-1.53406e-05,-1.72337e-05,-1.91848e-05,-2.11869e-05,-2.32331e-05,-2.53172e-05,-2.74329e-05,-2.95744e-05,-3.1736e-05,-3.39123e-05,-3.6098e-05,-3.82881e-05,-4.04777e-05,-4.2662e-05,-4.48365e-05,-4.69965e-05,-4.91375e-05,-5.12553e-05,-5.33454e-05,-5.54034e-05,-5.74251e-05,-5.94061e-05,-6.13422e-05,-6.3229e-05,-6.50621e-05,-6.68373e-05,-6.85502e-05,-7.01965e-05,-7.17718e-05,-7.32718e-05,-7.46922e-05,-7.60287e-05,-7.72771e-05,-7.84333e-05,-7.94932e-05,-8.04528e-05,-8.13083e-05,-8.20559e-05,-8.26923e-05,-8.3214e-05,-8.36179e-05,-8.39013e-05,-8.40615e-05,-8.40963e-05,-8.40036e-05,-8.3782e-05,-8.34302e-05,-8.29474e-05,-8.23331e-05,-8.15875e-05,-8.07111e-05,-7.97049e-05,-7.85703e-05,-7.73094e-05,-7.59248e-05,-7.44195e-05,-7.27971e-05,-7.10617e-05,-6.92181e-05,-6.72715e-05,-6.52275e-05,-6.30925e-05,-6.08732e-05,-5.85767e-05,-5.62107e-05,-5.37832e-05,-5.13029e-05,-4.87784e-05,-4.62188e-05,-4.36337e-05,-4.10326e-05,-3.84253e-05,-3.58219e-05,-3.32324e-05,-3.06669e-05,-2.81354e-05,-2.5648e-05,-2.32145e-05,-2.08447e-05,-1.8548e-05,-1.63336e-05,-1.42104e-05,-1.21867e-05,-1.02705e-05,-8.46934e-06,-6.79001e-06,-5.23875e-06,-3.82113e-06,-2.5419e-06,-1.40501e-06,-4.13456e-07,4.30776e-07,1.12684e-06,1.67519e-06,2.0777e-06,2.33797e-06,2.46155e-06,2.45636e-06,2.33317e-06,2.10629e-06,1.79442e-06,1.42183e-06,1.01969e-06,6.27455e-07,2.93183e-07,6.98907e-08,-0
-0,1.90225e-07,5.63781e-07,9.59443e-07,1.25445e-06,1.36084e-06,1.21897e-06,7.90914e-07,5.48833e-08,-9.99063e-07,-2.37226e-06,-4.05984e-06,-6.05247e-06,-8.33771e-06,-1.0901e-05,-1.37262e-05,-1.67965e-05,-2.00946e-05,-2.36028e-05,-2.7304e-05,-3.11809e-05,-3.52167e-05,-3.93953e-05,-4.37008e-05,-4.81182e-05,-5.26328e-05,-5.72305e-05,-6.1898e-05,-6.66222e-05,-7.13907e-05,-7.61915e-05,-8.1013e-05,-8.58441e-05,-9.06738e-05,-9.54917e-05,-0.000100287,-0.000105051,-0.000109772,-0.00011444,-0.000119047,-0.000123583,-0.000128037,-0.000132401,-0.000136665,-0.000140818,-0.000144853,-0.000148758,-0.000152525,-0.000156144,-0.000159606,-0.0001629,-0.000166018,-0.00016895,-0.000171687,-0.000174221,-0.000176541,-0.00017864,-0.000180508,-0.00018214,-0.000183526,-0.000184659,-0.000185533,-0.000186142,-0.00018648,-0.000186543,-0.000186326,-0.000185827,-0.000185041,-0.000183969,-0.000182608,-0.000180961,-0.000179027,-0.000176809,-0.00017431,-0.000171535,-0.000168491,-0.000165182,-0.000161618,-0.000157808,-0.000153761,-0.00014949,-0.000145006,-0.000140323,-0.000135457,-0.000130423,-0.000125236,-0.000119916,-0.00011448,-0.000108948,-0.000103339,-9.76735e-05,-9.19728e-05,-8.62579e-05,-8.05506e-05,-7.48726e-05,-6.92458e-05,-6.3692e-05,-5.82329e-05,-5.28898e-05,-4.76838e-05,-4.26352e-05,-3.7764e-05,-3.30893e-05,-2.86291e-05,-2.44007e-05,-2.042e-05,-1.67019e-05,-1.32597e-05,-1.01052e-05,-7.24859e-06,-4.69806e-06,-2.45986e-06,-5.37942e-07,1.06625e-06,2.35407e-06,3.33009e-06,4.0025e-06,4.38373e-06,4.49115e-06,4.34807e-06,3.98486e-06,3.44045e-06,2.7641e-06,2.01731e-06,1.27534e-06,6.27172e-07,1.71013e-07,-0
-0,2.71182e-07,7.70796e-07,1.25704e-06,1.54806e-06,1.51182e-06,1.05656e-06,1.22088e-07,-1.32748e-06,-3.30965e-06,-5.8281e-06,-8.87627e-06,-1.24401e-05,-1.65e-05,-2.10326e-05,-2.60119e-05,-3.141e-05,-3.71983e-05,-4.33475e-05,-4.98285e-05,-5.66123e-05,-6.36706e-05,-7.09757e-05,-7.85006e-05,-8.62194e-05,-9.41069e-05,-0.000102139,-0.000110292,-0.000118544,-0.000126872,-0.000135257,-0.000143677,-0.000152114,-0.000160548,-0.00016896,-0.000177333,-0.000185649,-0.000193889,-0.000202038,-0.000210077,-0.00021799,-0.00022576,-0.00023337,-0.000240804,-0.000248045,-0.000255075,-0.000261878,-0.000268439,-0.000274739,-0.000280762,-0.000286493,-0.000291914,-0.000297009,-0.000301763,-0.00030616,-0.000310185,-0.000313822,-0.000317058,-0.000319879,-0.000322273,-0.000324225,-0.000325727,-0.000326766,-0.000327335,-0.000327424,-0.000327027,-0.000326138,-0.000324754,-0.000322871,-0.000320488,-0.000317607,-0.00031423,-0.000310361,-0.000306005,-0.000301172,-0.000295871,-0.000290113,-0.000283914,-0.000277288,-0.000270253,-0.00026283,-0.000255039,-0.000246906,-0.000238454,-0.000229711,-0.000220705,-0.000211468,-0.00020203,-0.000192425,-0.000182687,-0.00017285,-0.000162951,-0.000153026,-0.000143113,-0.000133249,-0.000123471,-0.000113817,-0.000104324,-9.50294e-05,-8.59683e-05,-7.71761e-05,-6.86867e-05,-6.0533e-05,-5.27459e-05,-4.53548e-05,-3.83872e-05,-3.18682e-05,-2.58204e-05,-2.02641e-05,-1.52162e-05,-1.06906e-05,-6.69761e-06,-3.24359e-06,-3.30578e-07,2.04427e-06,3.88924e-06,5.21881e-06,6.05453e-06,6.4262e-06,6.37317e-06,5.94607e-06,5.20875e-06,4.24057e-06,3.13864e-06,2.01968e-06,1.02021e-06,2.93355e-07,-0
-0,3.28179e-07,8.90826e-07,1.36673e-06,1.51458e-06,1.15762e-06,1.71095e-07,-1.52845e-06,-3.99199e-06,-7.24533e-06,-1.1295e-05,-1.61326e-05,-2.17391e-05,-2.80869e-05,-3.51427e-05,-4.28688e-05,-5.12251e-05,-6.01692e-05,-6.96584e-05,-7.96494e-05,-9.00991e-05,-0.000100965,-0.000112206,-0.000123782,-0.000135652,-0.000147779,-0.000160127,-0.00017266,-0.000185342,-0.000198142,-0.000211027,-0.000223966,-0.00023693,-0.000249887,-0.000262811,-0.000275672,-0.000288444,-0.0003011,-0.000313612,-0.000325955,-0.000338102,-0.000350027,-0.000361704,-0.000373108,-0.000384213,-0.000394993,-0.000405422,-0.000415475,-0.000425126,-0.000434351,-0.000443123,-0.000451418,-0.000459212,-0.000466479,-0.000473197,-0.000479343,-0.000484893,-0.000489827,-0.000494123,-0.000497762,-0.000500727,-0.000502999,-0.000504564,-0.000505407,-0.000505516,-0.000504882,-0.000503496,-0.000501352,-0.000498447,-0.000494779,-0.000490349,-0.000485163,-0.000479226,-0.000472547,-0.00046514,-0.00045702,-0.000448205,-0.000438715,-0.000428577,-0.000417816,-0.000406463,-0.000394551,-0.000382117,-0.000369197,-0.000355834,-0.000342071,-0.000327954,-0.000313532,-0.000298853,-0.00028397,-0.000268936,-0.000253805,-0.000238633,-0.000223476,-0.00020839,-0.000193433,-0.000178661,-0.000164129,-0.000149895,-0.000136011,-0.000122531,-0.000109507,-9.69875e-05,-8.50195e-05,-7.36472e-05,-6.2912e-05,-5.28517e-05,-4.35003e-05,-3.4888e-05,-2.70401e-05,-1.99773e-05,-1.37147e-05,-8.26145e-06,-3.6201e-06,2.14078e-07,3.25398e-06,5.52171e-06,7.04979e-06,7.88264e-06,8.07835e-06,7.71079e-06,6.87199e-06,5.67479e-06,4.25555e-06,2.77641e-06,1.42653e-06,4.21403e-07,-0
-0,3.5178e-07,8.91845e-07,1.22618e-06,1.05732e-06,1.65634e-07,-1.60558e-06,-4.36247e-06,-8.17086e-06,-1.30647e-05,-1.90532e-05,-2.6126e-05,-3.42583e-05,-4.34137e-05,-5.35481e-05,-6.4611e-05,-7.65481e-05,-8.93024e-05,-0.000102815,-0.000117028,-0.00013188,-0.000147315,-0.000163274,-0.000179702,-0.000196543,-0.000213745,-0.000231255,-0.000249025,-0.000267006,-0.00028515,-0.000303414,-0.000321752,-0.000340123,-0.000358484,-0.000376795,-0.000395017,-0.000413109,-0.000431034,-0.000448754,-0.000466231,-0.000483428,-0.000500308,-0.000516834,-0.00053297,-0.000548678,-0.000563924,-0.00057867,-0.00059288,-0.000606518,-0.000619548,-0.000631936,-0.000643645,-0.000654642,-0.000664893,-0.000674363,-0.000683022,-0.000690836,-0.000697778,-0.000703817,-0.000708926,-0.000713081,-0.000716257,-0.000718433,-0.00071959,-0.000719712,-0.000718784,-0.000716795,-0.000713738,-0.000709608,-0.000704403,-0.000698127,-0.000690783,-0.000682384,-0.000672941,-0.000662474,-0.000651003,-0.000638555,-0.00062516,-0.000610851,-0.000595668,-0.000579653,-0.000562852,-0.000545316,-0.000527098,-0.000508256,-0.000488851,-0.000468948,-0.000448614,-0.000427918,-0.000406933,-0.000385734,-0.000364395,-0.000342994,-0.000321611,-0.000300324,-0.000279211,-0.000258354,-0.000237828,-0.000217713,-0.000198084,-0.000179015,-0.000160577,-0.000142839,-0.000125866,-0.000109721,-9.44593e-05,-8.01349e-05,-6.67947e-05,-5.44802e-05,-4.32268e-05,-3.30625e-05,-2.40082e-05,-1.60762e-05,-9.26959e-06,-3.5815e-06,1.00628e-06,4.52446e-06,7.01785e-06,8.54714e-06,9.19103e-06,9.04867e-06,8.24244e-06,6.92098e-06,5.26231e-06,3.47682e-06,1.80985e-06,5.43745e-07,-0
-0,3.36426e-07,7.53191e-07,7.93083e-07,1.08363e-07,-1.55959e-06,-4.3968e-06,-8.53027e-06,-1.40394e-05,-2.09654e-05,-2.93192e-05,-3.90878e-05,-5.02399e-05,-6.27296e-05,-7.65007e-05,-9.14891e-05,-0.000107625,-0.000124835,-0.000143043,-0.000162173,-0.000182148,-0.000202891,-0.000224328,-0.000246384,-0.000268988,-0.000292069,-0.000315559,-0.000339393,-0.000363505,-0.000387834,-0.00041232,-0.000436903,-0.000461527,-0.000486135,-0.000510673,-0.000535089,-0.000559329,-0.000583341,-0.000607076,-0.000630481,-0.000653508,-0.000676107,-0.000698228,-0.000719822,-0.00074084,-0.000761234,-0.000780954,-0.000799953,-0.000818183,-0.000835596,-0.000852144,-0.000867781,-0.000882461,-0.000896139,-0.00090877,-0.000920313,-0.000930725,-0.000939968,-0.000948002,-0.000954792,-0.000960305,-0.000964509,-0.000967377,-0.000968885,-0.000969009,-0.000967732,-0.00096504,-0.000960924,-0.000955376,-0.000948397,-0.000939988,-0.00093016,-0.000918925,-0.000906301,-0.000892313,-0.000876989,-0.000860365,-0.000842481,-0.000823382,-0.00080312,-0.00078175,-0.000759335,-0.000735941,-0.00071164,-0.000686508,-0.000660626,-0.00063408,-0.000606957,-0.000579351,-0.000551358,-0.000523074,-0.000494601,-0.000466042,-0.000437499,-0.000409077,-0.000380881,-0.000353015,-0.000325583,-0.000298687,-0.000272427,-0.0002469,-0.000222201,-0.000198421,-0.000175646,-0.000153957,-0.000133429,-0.000114131,-9.61267e-05,-7.94694e-05,-6.42057e-05,-5.03726e-05,-3.7997e-05,-2.70948e-05,-1.767e-05,-9.71333e-06,-3.20096e-06,1.90713e-06,5.6689e-06,8.16238e-06,9.48811e-06,9.77184e-06,9.1677e-06,7.86153e-06,6.07456e-06,4.06715e-06,2.14275e-06,6.52311e-07,-0
-0,2.78971e-07,4.62008e-07,3.96352e-08,-1.3786e-06,-4.08498e-06,-8.29092e-06,-1.41414e-05,-2.17273e-05,-3.10952e-05,-4.22566e-05,-5.51948e-05,-6.98706e-05,-8.62279e-05,-0.000104197,-0.000123699,-0.000144648,-0.000166952,-0.000190518,-0.000215249,-0.00024105,-0.000267824,-0.000295478,-0.000323918,-0.000353052,-0.000382793,-0.000413053,-0.000443749,-0.000474798,-0.000506121,-0.000537641,-0.000569283,-0.000600973,-0.000632639,-0.000664212,-0.000695623,-0.000726804,-0.000757688,-0.000788211,-0.000818307,-0.000847911,-0.000876959,-0.000905389,-0.000933137,-0.000960139,-0.000986334,-0.00101166,-0.00103605,-0.00105945,-0.00108179,-0.00110302,-0.00112308,-0.0011419,-0.00115943,-0.00117561,-0.00119039,-0.00120371,-0.00121554,-0.00122581,-0.00123448,-0.00124151,-0.00124686,-0.0012505,-0.00125239,-0.00125251,-0.00125083,-0.00124734,-0.00124202,-0.00123488,-0.0012259,-0.00121509,-0.00120246,-0.00118804,-0.00117184,-0.0011539,-0.00113425,-0.00111293,-0.00109001,-0.00106553,-0.00103957,-0.00101219,-0.000983473,-0.000953506,-0.000922378,-0.000890187,-0.000857036,-0.000823033,-0.00078829,-0.000752926,-0.000717061,-0.000680821,-0.000644332,-0.000607725,-0.000571132,-0.000534684,-0.000498515,-0.000462756,-0.000427541,-0.000392997,-0.000359252,-0.00032643,-0.000294651,-0.000264029,-0.000234673,-0.000206686,-0.000180165,-0.000155196,-0.000131858,-0.00011022,-9.03414e-05,-7.22677e-05,-5.60331e-05,-4.1658e-05,-2.91472e-05,-1.84893e-05,-9.65455e-06,-2.59344e-06,2.76567e-06,6.51875e-06,8.78883e-06,9.72905e-06,9.52598e-06,8.40346e-06,6.62662e-06,4.50649e-06,2.40508e-06,7.41489e-07,-0
-0,1.77777e-07,1.07364e-08,-1.05158e-06,-3.43388e-06,-7.45579e-06,-1.33493e-05,-2.12735e-05,-3.13279e-05,-4.35622e-05,-5.79866e-05,-7.45788e-05,-9.32909e-05,-0.000114055,-0.000136787,-0.000161392,-0.000187765,-0.000215797,-0.000245375,-0.000276381,-0.000308699,-0.000342212,-0.000376805,-0.000412364,-0.000448777,-0.000485935,-0.000523732,-0.000562063,-0.000600828,-0.000639928,-0.000679268,-0.000718753,-0.000758294,-0.0007978,-0.000837184,-0.000876362,-0.000915247,-0.000953759,-0.000991814,-0.00102933,-0.00106623,-0.00110243,-0.00113786,-0.00117242,-0.00120606,-0.00123868,-0.00127021,-0.00130057,-0.0013297,-0.0013575,-0.0013839,-0.00140884,-0.00143224,-0.00145403,-0.00147413,-0.00149249,-0.00150904,-0.00152371,-0.00153644,-0.00154718,-0.00155589,-0.0015625,-0.00156698,-0.00156929,-0.0015694,-0.00156727,-0.0015629,-0.00155625,-0.00154734,-0.00153614,-0.00152268,-0.00150697,-0.00148902,-0.00146887,-0.00144656,-0.00142213,-0.00139565,-0.00136716,-0.00133675,-0.0013045,-0.00127049,-0.00123482,-0.0011976,-0.00115894,-0.00111896,-0.00107778,-0.00103555,-0.000992392,-0.00094846,-0.000903901,-0.000858869,-0.000813521,-0.000768016,-0.000722517,-0.000677187,-0.000632189,-0.000587687,-0.000543841,-0.000500812,-0.000458756,-0.000417824,-0.000378165,-0.000339919,-0.000303221,-0.000268198,-0.000234966,-0.000203634,-0.000174299,-0.000147044,-0.000121943,-9.90517e-05,-7.84127e-05,-6.00507e-05,-4.39723e-05,-3.0164e-05,-1.85904e-05,-9.1925e-06,-1.88477e-06,3.44688e-06,6.94823e-06,8.8e-06,9.22147e-06,8.47457e-06,6.8684e-06,4.7644e-06,2.58231e-06,8.07437e-07,-0
-0,3.21537e-08,-6.04602e-07,-2.49063e-06,-6.07612e-06,-1.1701e-05,-1.96124e-05,-2.99793e-05,-4.29058e-05,-5.84424e-05,-7.65953e-05,-9.73349e-05,-0.000120603,-0.000146317,-0.000174379,-0.000204676,-0.000237084,-0.000271474,-0.000307711,-0.000345656,-0.000385172,-0.000426118,-0.000468358,-0.000511756,-0.000556177,-0.000601491,-0.00064757,-0.000694289,-0.000741526,-0.000789162,-0.000837081,-0.000885171,-0.00093332,-0.000981421,-0.00102937,-0.00107706,-0.00112438,-0.00117125,-0.00121755,-0.0012632,-0.00130808,-0.00135211,-0.00139519,-0.00143722,-0.00147811,-0.00151776,-0.00155608,-0.00159298,-0.00162835,-0.00166212,-0.00169418,-0.00172446,-0.00175286,-0.00177929,-0.00180368,-0.00182594,-0.001846,-0.00186377,-0.00187919,-0.0018922,-0.00190272,-0.00191071,-0.00191611,-0.00191887,-0.00191897,-0.00191635,-0.00191101,-0.00190292,-0.00189207,-0.00187847,-0.00186212,-0.00184304,-0.00182125,-0.0017968,-0.00176974,-0.00174011,-0.00170798,-0.00167344,-0.00163657,-0.00159746,-0.00155623,-0.001513,-0.00146788,-0.00142101,-0.00137254,-0.00132262,-0.00127142,-0.00121909,-0.00116582,-0.00111177,-0.00105715,-0.00100213,-0.00094691,-0.000891682,-0.000836643,-0.000781989,-0.000727917,-0.00067462,-0.000622291,-0.000571117,-0.000521281,-0.00047296,-0.000426325,-0.000381535,-0.000338745,-0.000298094,-0.000259712,-0.000223716,-0.000190208,-0.000159273,-0.000130982,-0.000105384,-8.25109e-05,-6.23703e-05,-4.49475e-05,-3.0202e-05,-1.80652e-05,-8.43823e-06,-1.18886e-06,3.85127e-06,6.89028e-06,8.17992e-06,8.01982e-06,6.76246e-06,4.81867e-06,2.6642e-06,8.47584e-07,-0
-0,-1.57983e-07,-1.38557e-06,-4.28243e-06,-9.31542e-06,-1.68376e-05,-2.7105e-05,-4.02919e-05,-5.65031e-05,-7.57862e-05,-9.81409e-05,-0.000123528,-0.000151876,-0.000183089,-0.000217051,-0.000253629,-0.00029268,-0.000334054,-0.000377592,-0.000423134,-0.000470518,-0.000519582,-0.000570164,-0.000622105,-0.000675249,-0.00072944,-0.000784529,-0.000840367,-0.000896811,-0.00095372,-0.00101096,-0.00106839,-0.00112588,-0.00118331,-0.00124055,-0.00129747,-0.00135395,-0.00140987,-0.00146512,-0.00151957,-0.00157311,-0.00162563,-0.001677,-0.00172711,-0.00177586,-0.00182312,-0.00186878,-0.00191275,-0.00195489,-0.00199511,-0.0020333,-0.00206934,-0.00210315,-0.00213461,-0.00216363,-0.00219011,-0.00221396,-0.0022351,-0.00225343,-0.00226888,-0.00228137,-0.00229085,-0.00229724,-0.0023005,-0.00230058,-0.00229744,-0.00229106,-0.00228141,-0.00226849,-0.00225229,-0.00223283,-0.00221012,-0.00218421,-0.00215513,-0.00212293,-0.0020877,-0.0020495,-0.00200844,-0.0019646,-0.00191811,-0.0018691,-0.0018177,-0.00176406,-0.00170835,-0.00165073,-0.00159138,-0.00153049,-0.00146826,-0.0014049,-0.00134062,-0.00127563,-0.00121015,-0.00114443,-0.00107867,-0.00101312,-0.00094801,-0.000883564,-0.000820016,-0.000757591,-0.00069651,-0.00063699,-0.000579239,-0.000523457,-0.000469836,-0.000418554,-0.000369779,-0.000323663,-0.000280343,-0.000239941,-0.000202559,-0.000168278,-0.000137158,-0.000109238,-8.45283e-05,-6.30132e-05,-4.46474e-05,-2.93537e-05,-1.70199e-05,-7.49629e-06,-5.92452e-07,3.92667e-06,6.34463e-06,6.99797e-06,6.28139e-06,4.65351e-06,2.64372e-06,8.60266e-07,-0
-0,-3.92335e-07,-2.33211e-06,-6.42829e-06,-1.31558e-05,-2.28734e-05,-3.58401e-05,-5.22297e-05,-7.2144e-05,-9.56237e-05,-0.000122659,-0.000153198,-0.000187156,-0.000224418,-0.00026485,-0.000308299,-0.0003546,-0.000403579,-0.000455056,-0.000508845,-0.000564761,-0.000622616,-0.000682225,-0.000743402,-0.000805967,-0.000869742,-0.000934551,-0.00100022,-0.00106659,-0.0011335,-0.00120077,-0.00126826,-0.00133581,-0.00140328,-0.00147051,-0.00153736,-0.00160369,-0.00166936,-0.00173422,-0.00179814,-0.00186098,-0.00192261,-0.00198289,-0.00204169,-0.00209887,-0.00215431,-0.00220787,-0.00225942,-0.00230883,-0.00235598,-0.00240074,-0.00244298,-0.00248259,-0.00251945,-0.00255344,-0.00258445,-0.00261238,-0.00263712,-0.00265857,-0.00267665,-0.00269126,-0.00270234,-0.00270981,-0.00271361,-0.00271369,-0.00271,-0.00270251,-0.00269121,-0.00267608,-0.00265711,-0.00263433,-0.00260776,-0.00257743,-0.00254341,-0.00250575,-0.00246453,-0.00241985,-0.00237181,-0.00232054,-0.00226616,-0.00220883,-0.0021487,-0.00208596,-0.00202078,-0.00195336,-0.00188392,-0.00181267,-0.00173984,-0.00166567,-0.00159041,-0.00151431,-0.00143762,-0.00136062,-0.00128356,-0.00120672,-0.00113036,-0.00105476,-0.000980172,-0.000906869,-0.000835106,-0.000765132,-0.000697191,-0.000631515,-0.000568326,-0.000507833,-0.00045023,-0.000395694,-0.000344386,-0.000296446,-0.000251994,-0.000211126,-0.000173913,-0.0001404,-0.000110602,-8.45042e-05,-6.20561e-05,-4.31728e-05,-2.77298e-05,-1.55606e-05,-6.45334e-06,-1.46925e-07,3.67299e-06,5.37869e-06,5.40555e-06,4.25799e-06,2.51626e-06,8.44473e-07,-0
-0,-6.70365e-07,-3.44306e-06,-8.927e-06,-1.75968e-05,-2.98096e-05,-4.58213e-05,-6.57999e-05,-8.98391e-05,-0.000117969,-0.000150167,-0.000186367,-0.000226465,-0.000270328,-0.000317801,-0.00036871,-0.000422866,-0.00048007,-0.000540118,-0.0006028,-0.000667903,-0.000735214,-0.000804522,-0.000875617,-0.000948292,-0.00102234,-0.00109757,-0.00117378,-0.00125077,-0.00132837,-0.00140638,-0.00148463,-0.00156294,-0.00164114,-0.00171905,-0.00179651,-0.00187336,-0.00194943,-0.00202456,-0.00209859,-0.00217137,-0.00224273,-0.00231252,-0.00238058,-0.00244677,-0.00251093,-0.00257291,-0.00263256,-0.00268973,-0.00274427,-0.00279604,-0.0028449,-0.0028907,-0.00293332,-0.00297261,-0.00300846,-0.00304074,-0.00306933,-0.00309412,-0.00311501,-0.00313189,-0.00314469,-0.00315332,-0.00315771,-0.0031578,-0.00315355,-0.00314491,-0.00313187,-0.0031144,-0.00309252,-0.00306623,-0.00303557,-0.00300057,-0.00296131,-0.00291786,-0.0028703,-0.00281874,-0.00276331,-0.00270414,-0.00264139,-0.00257523,-0.00250584,-0.00243342,-0.00235818,-0.00228035,-0.00220018,-0.0021179,-0.00203379,-0.00194812,-0.00186117,-0.00177323,-0.00168459,-0.00159556,-0.00150644,-0.00141754,-0.00132917,-0.00124164,-0.00115524,-0.00107029,-0.000987076,-0.000905887,-0.000827002,-0.000750688,-0.000677198,-0.000606774,-0.000539638,-0.000475995,-0.000416028,-0.000359901,-0.000307751,-0.000259691,-0.000215803,-0.00017614,-0.000140724,-0.00010954,-8.25345e-05,-5.9616e-05,-4.06482e-05,-2.54489e-05,-1.37859e-05,-5.3731e-06,1.33415e-07,3.14013e-06,4.12131e-06,3.62485e-06,2.27891e-06,7.99656e-07,-0
-0,-9.91386e-07,-4.71656e-06,-1.17756e-05,-2.26349e-05,-3.76429e-05,-5.70458e-05,-8.10007e-05,-0.000109588,-0.000142824,-0.000180669,-0.000223039,-0.000269809,-0.000320826,-0.000375912,-0.000434867,-0.00049748,-0.000563526,-0.000632774,-0.000704986,-0.000779925,-0.00085735,-0.000937023,-0.00101871,-0.00110217,-0.00118718,-0.0012735,-0.00136093,-0.00144924,-0.00153822,-0.00162765,-0.00171735,-0.00180709,-0.0018967,-0.00198596,-0.0020747,-0.00216272,-0.00224984,-0.00233588,-0.00242065,-0.00250397,-0.00258566,-0.00266555,-0.00274345,-0.0028192,-0.00289262,-0.00296354,-0.00303178,-0.00309718,-0.00315957,-0.00321878,-0.00327466,-0.00332704,-0.00337577,-0.0034207,-0.00346169,-0.0034986,-0.00353128,-0.00355963,-0.00358351,-0.00360282,-0.00361747,-0.00362735,-0.00363239,-0.00363253,-0.0036277,-0.00361788,-0.00360302,-0.00358311,-0.00355817,-0.00352819,-0.00349323,-0.00345333,-0.00340856,-0.003359,-0.00330476,-0.00324596,-0.00318273,-0.00311524,-0.00304366,-0.00296817,-0.002889,-0.00280636,-0.00272049,-0.00263166,-0.00254014,-0.0024462,-0.00235015,-0.0022523,-0.00215296,-0.00205247,-0.00195115,-0.00184936,-0.00174744,-0.00164573,-0.00154459,-0.00144436,-0.00134539,-0.00124803,-0.0011526,-0.00105944,-0.000968859,-0.000881162,-0.000796639,-0.000715562,-0.000638185,-0.000564741,-0.000495441,-0.00043047,-0.000369986,-0.000314117,-0.000262962,-0.000216583,-0.000175007,-0.000138221,-0.000106171,-7.87597e-05,-5.58397e-05,-3.72144e-05,-2.26324e-05,-1.1784e-05,-4.29726e-06,2.66854e-07,2.41947e-06,2.74951e-06,1.93007e-06,7.25594e-07,-0
-0,-1.35463e-06,-6.1503e-06,-1.49701e-05,-2.82643e-05,-4.63662e-05,-6.95059e-05,-9.78238e-05,-0.000131383,-0.000170181,-0.000214157,-0.000263205,-0.00031718,-0.000375903,-0.000439171,-0.000506759,-0.000578429,-0.000653929,-0.000733,-0.000815377,-0.000900794,-0.000988983,-0.00107968,-0.00117261,-0.00126753,-0.00136416,-0.00146226,-0.00156158,-0.00166188,-0.00176291,-0.00186445,-0.00196625,-0.0020681,-0.00216977,-0.00227104,-0.00237171,-0.00247155,-0.00257035,-0.00266792,-0.00276403,-0.0028585,-0.00295111,-0.00304167,-0.00312997,-0.00321582,-0.00329902,-0.00337938,-0.00345671,-0.00353081,-0.00360149,-0.00366857,-0.00373187,-0.00379121,-0.00384641,-0.00389731,-0.00394374,-0.00398555,-0.00402259,-0.0040547,-0.00408178,-0.00410368,-0.0041203,-0.00413153,-0.0041373,-0.00413751,-0.00413212,-0.00412108,-0.00410434,-0.00408191,-0.00405378,-0.00401997,-0.00398052,-0.00393549,-0.00388495,-0.00382901,-0.00376777,-0.00370137,-0.00362996,-0.00355374,-0.00347288,-0.0033876,-0.00329815,-0.00320476,-0.00310772,-0.00300731,-0.00290383,-0.00279761,-0.00268898,-0.00257829,-0.00246588,-0.00235215,-0.00223745,-0.00212217,-0.00200671,-0.00189145,-0.00177678,-0.0016631,-0.00155081,-0.00144027,-0.00133187,-0.00122598,-0.00112295,-0.00102313,-0.000926833,-0.000834377,-0.000746046,-0.000662102,-0.000582785,-0.000508304,-0.000438839,-0.000374538,-0.000315513,-0.000261838,-0.000213548,-0.000170634,-0.000133042,-0.000100668,-7.33571e-05,-5.08995e-05,-3.30257e-05,-1.9404e-05,-9.63593e-06,-3.25187e-06,2.94059e-07,1.62933e-06,1.46899e-06,6.22282e-07,-0
-0,-1.75928e-06,-7.74165e-06,-1.85054e-05,-3.44779e-05,-5.597e-05,-8.319e-05,-0.000116256,-0.000155209,-0.000200023,-0.000250613,-0.000306849,-0.000368559,-0.000435538,-0.000507556,-0.00058436,-0.000665684,-0.000751246,-0.000840759,-0.00093393,-0.00103046,-0.00113006,-0.00123242,-0.00133726,-0.00144428,-0.00155321,-0.00166374,-0.00177562,-0.00188857,-0.00200232,-0.00211661,-0.00223118,-0.00234578,-0.00246017,-0.0025741,-0.00268732,-0.00279961,-0.00291072,-0.00302042,-0.00312848,-0.00323468,-0.00333879,-0.00344058,-0.00353983,-0.00363632,-0.00372982,-0.00382013,-0.00390702,-0.00399028,-0.0040697,-0.00414507,-0.00421619,-0.00428287,-0.00434489,-0.00440209,-0.00445427,-0.00450126,-0.00454289,-0.00457901,-0.00460947,-0.00463413,-0.00465287,-0.00466557,-0.00467213,-0.00467248,-0.00466654,-0.00465427,-0.00463562,-0.00461058,-0.00457916,-0.00454137,-0.00449726,-0.00444689,-0.00439036,-0.00432775,-0.00425921,-0.00418489,-0.00410495,-0.00401959,-0.00392904,-0.00383352,-0.00373331,-0.00362867,-0.00351992,-0.00340737,-0.00329136,-0.00317225,-0.00305041,-0.00292623,-0.00280009,-0.00267242,-0.00254364,-0.00241416,-0.00228443,-0.00215488,-0.00202595,-0.00189807,-0.00177169,-0.00164722,-0.00152509,-0.00140571,-0.00128948,-0.00117678,-0.00106797,-0.000963403,-0.000863395,-0.000768244,-0.000678216,-0.000593549,-0.000514447,-0.000441076,-0.000373567,-0.000312006,-0.000256437,-0.000206856,-0.000163211,-0.000125395,-9.3245e-05,-6.65392e-05,-4.49922e-05,-2.82518e-05,-1.58951e-05,-7.4235e-06,-2.25867e-06,2.62928e-07,8.9549e-07,4.8985e-07,-0
-0,-2.2045e-06,-9.48784e-06,-2.23764e-05,-4.12674e-05,-6.64432e-05,-9.80842e-05,-0.000136281,-0.000181048,-0.000232329,-0.000290015,-0.000353944,-0.000423917,-0.0004997,-0.000581033,-0.000667633,-0.000759203,-0.000855433,-0.000956003,-0.00106059,-0.00116887,-0.00128051,-0.00139518,-0.00151257,-0.00163235,-0.00175421,-0.00187784,-0.00200293,-0.00212918,-0.00225629,-0.00238399,-0.00251198,-0.00263998,-0.00276772,-0.00289493,-0.00302134,-0.00314669,-0.00327071,-0.00339315,-0.00351375,-0.00363227,-0.00374844,-0.00386202,-0.00397275,-0.0040804,-0.00418472,-0.00428546,-0.0043824,-0.00447528,-0.00456388,-0.00464796,-0.0047273,-0.00480169,-0.0048709,-0.00493472,-0.00499296,-0.00504541,-0.00509191,-0.00513226,-0.00516631,-0.00519391,-0.00521491,-0.0052292,-0.00523666,-0.0052372,-0.00523075,-0.00521724,-0.00519665,-0.00516895,-0.00513415,-0.00509226,-0.00504334,-0.00498745,-0.0049247,-0.00485519,-0.00477907,-0.00469651,-0.00460769,-0.00451284,-0.00441218,-0.00430599,-0.00419456,-0.00407818,-0.0039572,-0.00383197,-0.00370287,-0.00357028,-0.00343461,-0.0032963,-0.00315578,-0.0030135,-0.00286994,-0.00272556,-0.00258084,-0.00243627,-0.00229232,-0.0021495,-0.00200826,-0.0018691,-0.00173248,-0.00159885,-0.00146865,-0.00134232,-0.00122025,-0.00110283,-0.000990411,-0.000883333,-0.000781891,-0.000686351,-0.000596942,-0.000513853,-0.000437232,-0.000367182,-0.000303756,-0.000246959,-0.00019674,-0.000152991,-0.000115542,-8.41634e-05,-5.85538e-05,-3.83427e-05,-2.30843e-05,-1.22533e-05,-5.24107e-06,-1.35026e-06,2.09762e-07,3.28509e-07,-0
-0,-2.68947e-06,-1.1386e-05,-2.65772e-05,-4.86238e-05,-7.77733e-05,-0.000114172,-0.000157879,-0.000208875,-0.000267074,-0.000332332,-0.000404458,-0.000483219,-0.000568351,-0.00065956,-0.000756532,-0.000858938,-0.000966435,-0.00107867,-0.00119529,-0.00131594,-0.00144025,-0.00156787,-0.00169845,-0.00183163,-0.00196708,-0.00210443,-0.00224338,-0.00238357,-0.0025247,-0.00266644,-0.00280847,-0.00295051,-0.00309223,-0.00323334,-0.00337355,-0.00351257,-0.00365011,-0.00378588,-0.0039196,-0.004051,-0.00417979,-0.00430571,-0.00442846,-0.0045478,-0.00466343,-0.00477511,-0.00488256,-0.00498552,-0.00508373,-0.00517695,-0.00526492,-0.00534739,-0.00542414,-0.00549493,-0.00555954,-0.00561775,-0.00566937,-0.0057142,-0.00575206,-0.00578278,-0.00580621,-0.00582222,-0.00583068,-0.0058315,-0.00582458,-0.00580987,-0.00578733,-0.00575692,-0.00571866,-0.00567257,-0.00561871,-0.00555714,-0.00548797,-0.00541133,-0.00532737,-0.00523628,-0.00513826,-0.00503355,-0.00492241,-0.00480513,-0.00468203,-0.00455345,-0.00441974,-0.0042813,-0.00413854,-0.00399189,-0.00384179,-0.00368872,-0.00353317,-0.00337562,-0.00321659,-0.0030566,-0.00289618,-0.00273585,-0.00257615,-0.00241762,-0.00226078,-0.00210616,-0.00195427,-0.00180562,-0.00166069,-0.00151996,-0.00138387,-0.00125284,-0.00112728,-0.00100754,-0.00089397,-0.000786856,-0.000686458,-0.000592988,-0.000506616,-0.00042746,-0.000355588,-0.000291011,-0.000233685,-0.0001835,-0.000140285,-0.0001038,-7.37302e-05,-4.96898e-05,-3.12116e-05,-1.77456e-05,-8.65471e-06,-3.2104e-06,-5.87864e-07,1.38495e-07,-0