0,0,0,0,0,0,0,0,0,0,0,0,0,0,0,0,0,0,0,0,0,0,0,0,0,0,0,0,0,0,0,0,0,0,0,0,0,0,0,0,0,0,0,0,0,0,0,0,0,0,0,0,0,0,0,0,0,0,0,0,0,0,0,0,0,0,0,0,0,0,0,0,0,0,0,0,0,0,0,0,0,0,0,0,0,0,0,0,0,0,0,0,0,0,0,0,0,0,0,0,0,0,0,0,0,0,0,0,0,0,0,0,0,0,0,0,0,0,0,0,0,0,0,0,0,0,0,0
0,6.40377e-06,2.01756e-05,3.57435e-05,4.87598e-05,5.62003e-05,5.61032e-05,4.72814e-05,2.90937e-05,1.28063e-06,-3.61514e-05,-8.30108e-05,-0.000138978,-0.000203646,-0.000276551,-0.000357191,-0.000445045,-0.000539585,-0.000640279,-0.000746606,-0.000858055,-0.000974126,-0.00109434,-0.00121824,-0.00134537,-0.0014753,-0.00160764,-0.00174199,-0.00187798,-0.00201524,-0.00215343,-0.00229222,-0.00243129,-0.00257033,-0.00270904,-0.00284712,-0.00298427,-0.00312023,-0.00325471,-0.00338743,-0.00351812,-0.00364649,-0.00377229,-0.00389523,-0.00401504,-0.00413144,-0.00424417,-0.00435294,-0.00445748,-0.00455751,-0.00465276,-0.00474295,-0.00482782,-0.0049071,-0.00498052,-0.00504782,-0.00510875,-0.00516307,-0.00521055,-0.00525096,-0.00528409,-0.00530974,-0.00532773,-0.0053379,-0.00534011,-0.00533423,-0.00532016,-0.00529782,-0.00526716,-0.00522815,-0.00518081,-0.00512516,-0.00506126,-0.00498921,-0.00490915,-0.00482122,-0.00472564,-0.00462261,-0.00451242,-0.00439535,-0.00427174,-0.00414195,-0.00400638,-0.00386545,-0.00371962,-0.00356938,-0.00341524,-0.00325773,-0.00309743,-0.0029349,-0.00277074,-0.00260557,-0.00244001,-0.00227469,-0.00211026,-0.00194735,-0.0017866,-0.00162865,-0.00147412,-0.00132364,-0.0011778,-0.00103719,-0.000902359,-0.000773855,-0.000652179,-0.000537803,-0.000431165,-0.000332661,-0.000242642,-0.000161411,-8.92181e-05,-2.62545e-05,2.73543e-05,7.15546e-05,0.000106374,0.000131934,0.000148461,0.000156308,0.000155979,0.000148156,0.000133749,0.000113946,9.02859e-05,6.47502e-05,3.98434e-05,1.86171e-05,4.43806e-06,0
0,1.03547e-05,2.94015e-05,4.88757e-05,6.25232e-05,6.57446e-05,5.53354e-05,2.92078e-05,-1.38676e-05,-7.4477e-05,-0.000152731,-0.000248393,-0.000360975,-0.00048981,-0.000634108,-0.000792993,-0.000965539,-0.00115079,-0.00134778,-0.00155555,-0.00177315,-0.00199965,-0.00223413,-0.00247574,-0.00272361,-0.00297693,-0.00323491,-0.00349681,-0.0037619,-0.00402947,-0.00429885,-0.0045694,-0.00484049,-0.00511149,-0.00538183,-0.00565091,-0.00591816,-0.00618304,-0.00644498,-0.00670344,-0.00695787,-0.00720773,-0.00745249,-0.00769161,-0.00792455,-0.00815078,-0.00836975,-0.00858094,-0.00878379,-0.0089778,-0.00916241,-0.0093371,-0.00950135,-0.00965465,-0.00979649,-0.00992638,-0.0100438,-0.0101484,-0.0102396,-0.0103171,-0.0103804,-0.0104291,-0.010463,-0.0104817,-0.010485,-0.0104726,-0.0104444,-0.0104001,-0.0103398,-0.0102634,-0.0101709,-0.0100623,-0.00993787,-0.00979774,-0.00964216,-0.00947146,-0.00928602,-0.00908628,-0.00887276,-0.00864603,-0.00840673,-0.00815556,-0.00789329,-0.00762074,-0.00733877,-0.00704833,-0.00675039,-0.00644599,-0.00613618,-0.00582208,-0.00550483,-0.00518559,-0.00486555,-0.00454592,-0.00422791,-0.00391275,-0.00360165,-0.00329582,-0.00299646,-0.00270472,-0.00242176,-0.00214868,-0.00188655,-0.00163637,-0.0013991,-0.00117563,-0.000966797,-0.000773328,-0.000595884,-0.000435025,-0.000291207,-0.000164771,-5.5933e-05,3.52354e-05,0.000108819,0.00016508,0.000204487,0.000227743,0.000235825,0.000230039,0.000212074,0.000184082,0.00014876,0.000109432,7.00965e-05,3.53786e-05,1.03093e-05,0
0,1.08163e-05,2.877e-05,4.40787e-05,4.9542e-05,3.98005e-05,1.09882e-05,-3.95288e-05,-0.000113389,-0.000211443,-0.000333933,-0.000480633,-0.000650968,-0.000844104,-0.00105902,-0.00129456,-0.00154949,-0.0018225,-0.00211229,-0.0024175,-0.00273683,-0.00306896,-0.00341262,-0.00376655,-0.00412957,-0.00450048,-0.00487817,-0.00526154,-0.00564954,-0.00604115,-0.00643538,-0.00683129,-0.00722795,-0.00762445,-0.00801994,-0.00841353,-0.00880441,-0.00919173,-0.00957468,-0.00995246,-0.0103243,-0.0106893,-0.0110467,-0.0113958,-0.0117358,-0.0120658,-0.0123851,-0.0126929,-0.0129884,-0.0132709,-0.0135395,-0.0137936,-0.0140323,-0.0142549,-0.0144607,-0.0146489,-0.014819,-0.0149701,-0.0151018,-0.0152133,-0.0153042,-0.0153739,-0.0154219,-0.0154479,-0.0154513,-0.015432,-0.0153896,-0.015324,-0.0152351,-0.0151229,-0.0149873,-0.0148284,-0.0146466,-0.0144421,-0.0142153,-0.0139666,-0.0136966,-0.0134059,-0.0130953,-0.0127657,-0.0124179,-0.0120531,-0.0116721,-0.0112764,-0.010867,-0.0104454,-0.010013,-0.00957119,-0.00912156,-0.0086657,-0.00820522,-0.00774181,-0.00727715,-0.00681298,-0.00635104,-0.00589306,-0.00544079,-0.00499595,-0.00456025,-0.00413535,-0.00372288,-0.00332442,-0.00294148,-0.00257551,-0.00222785,-0.00189978,-0.00159246,-0.00130694,-0.00104413,-0.000804817,-0.000589634,-0.000399044,-0.000233323,-9.25463e-05,2.3437e-05,0.000115033,0.000182933,0.000228154,0.000252085,0.00025654,0.000243826,0.00021681,0.00017899,0.000134554,8.84065e-05,4.6166e-05,1.419e-05,0
0,8.76007e-06,2.07673e-05,2.58627e-05,1.65185e-05,-1.2904e-05,-6.65402e-05,-0.000147279,-0.000256976,-0.000396638,-0.000566591,-0.000766623,-0.000996102,-0.00125407,-0.00153935,-0.00185056,-0.00218621,-0.00254474,-0.00292453,-0.00332393,-0.00374131,-0.00417503,-0.00462349,-0.00508512,-0.00555839,-0.00604181,-0.00653393,-0.00703336,-0.00753873,-0.00804872,-0.00856208,-0.00907754,-0.00959393,-0.01011,-0.0106248,-0.011137,-0.0116455,-0.0121494,-0.0126474,-0.0131386,-0.013622,-0.0140963,-0.0145608,-0.0150142,-0.0154556,-0.0158839,-0.0162981,-0.0166973,-0.0170804,-0.0174463,-0.0177941,-0.0181229,-0.0184316,-0.0187193,-0.018985,-0.0192279,-0.0194471,-0.0196417,-0.0198109,-0.019954,-0.0200703,-0.0201591,-0.0202198,-0.0202518,-0.0202548,-0.0202283,-0.020172,-0.0200857,-0.0199694,-0.0198228,-0.0196462,-0.0194397,-0.0192035,-0.0189381,-0.0186439,-0.0183216,-0.0179719,-0.0175957,-0.0171938,-0.0167675,-0.0163178,-0.0158461,-0.0153539,-0.0148425,-0.0143136,-0.013769,-0.0132104,-0.0126398,-0.012059,-0.0114701,-0.0108752,-0.0102764,-0.00967582,-0.00907576,-0.00847837,-0.00788588,-0.0073005,-0.00672442,-0.0061598,-0.00560878,-0.0050734,-0.00455569,-0.00405754,-0.00358079,-0.00312716,-0.00269824,-0.00229551,-0.00192028,-0.00157371,-0.00125676,-0.000970234,-0.000714684,-0.000490443,-0.000297583,-0.00013589,-4.83326e-06,9.64696e-05,0.000169295,0.000215359,0.000236873,0.000236597,0.000217903,0.000184828,0.000142128,9.53181e-05,5.07591e-05,1.58997e-05,0
0,5.11795e-06,7.68664e-06,-1.95958e-06,-3.11621e-05,-8.5483e-05,-0.000169046,-0.000284769,-0.000434554,-0.000619449,-0.000839795,-0.00109536,-0.00138545,-0.00170902,-0.00206473,-0.00245105,-0.00286627,-0.00330861,-0.00377621,-0.00426715,-0.00477952,-0.00531142,-0.00586096,-0.00642627,-0.00700554,-0.00759699,-0.00819889,-0.00880955,-0.00942733,-0.0100507,-0.010678,-0.0113078,-0.0119386,-0.012569,-0.0131975,-0.0138229,-0.0144437,-0.0150587,-0.0156665,-0.0162658,-0.0168553,-0.0174338,-0.0179999,-0.0185525,-0.0190903,-0.0196119,-0.0201162,-0.020602,-0.021068,-0.0215129,-0.0219356,-0.022335,-0.0227097,-0.0230587,-0.0233809,-0.0236751,-0.0239404,-0.0241757,-0.02438,-0.0245525,-0.0246923,-0.0247987,-0.0248708,-0.0249082,-0.0249103,-0.0248766,-0.0248067,-0.0247005,-0.0245578,-0.0243786,-0.024163,-0.0239111,-0.0236235,-0.0233004,-0.0229427,-0.0225509,-0.0221261,-0.0216691,-0.0211813,-0.0206639,-0.0201183,-0.0195461,-0.018949,-0.0183289,-0.0176876,-0.0170273,-0.01635,-0.0156581,-0.0149538,-0.0142397,-0.0135181,-0.0127917,-0.012063,-0.0113346,-0.0106093,-0.00988952,-0.00917806,-0.0084775,-0.00779042,-0.00711935,-0.00646675,-0.00583501,-0.00522641,-0.00464314,-0.00408722,-0.00356058,-0.00306494,-0.00260186,-0.00217273,-0.00177867,-0.00142062,-0.00109922,-0.000814869,-0.000567627,-0.000357236,-0.000183068,-4.40912e-05,6.11706e-05,0.00013468,0.000178934,0.000197015,0.000192639,0.000170206,0.000134853,9.2528e-05,5.01423e-05,1.58998e-05,0
0,5.23658e-07,-8.73979e-06,-3.64266e-05,-8.92947e-05,-0.000172543,-0.000290061,-0.000444616,-0.00063801,-0.000871223,-0.00114454,-0.00145765,-0.0018098,-0.00219981,-0.00262624,-0.00308738,-0.00358139,-0.00410626,-0.00465992,-0.00524024,-0.00584508,-0.00647229,-0.00711971,-0.00778525,-0.00846681,-0.00916237,-0.00986993,-0.0105876,-0.0113133,-0.0120454,-0.0127821,-0.0135215,-0.0142619,-0.0150017,-0.0157393,-0.016473,-0.0172012,-0.0179223,-0.0186349,-0.0193374,-0.0200283,-0.0207061,-0.0213692,-0.0220163,-0.0226458,-0.0232563,-0.0238463,-0.0244144,-0.0249591,-0.025479,-0.0259728,-0.026439,-0.0268763,-0.0272834,-0.0276589,-0.0280016,-0.0283104,-0.028584,-0.0288213,-0.0290214,-0.0291832,-0.0293059,-0.0293887,-0.0294308,-0.0294318,-0.029391,-0.0293081,-0.0291828,-0.029015,-0.0288047,-0.0285521,-0.0282573,-0.0279209,-0.0275434,-0.0271254,-0.0266681,-0.0261722,-0.0256391,-0.0250701,-0.0244668,-0.0238307,-0.0231637,-0.0224678,-0.0217451,-0.0209978,-0.0202282,-0.019439,-0.0186325,-0.0178116,-0.0169791,-0.0161378,-0.0152906,-0.0144404,-0.0135905,-0.0127436,-0.0119029,-0.0110715,-0.0102523,-0.0094483,-0.00866239,-0.00789741,-0.00715609,-0.00644106,-0.0057548,-0.00509965,-0.00447781,-0.00389125,-0.00334177,-0.00283092,-0.00236002,-0.0019301,-0.00154192,-0.00119592,-0.000892168,-0.00063039,-0.000409889,-0.000229526,-8.76865e-05,1.77639e-05,8.95195e-05,0.000130877,0.000145778,0.000138859,0.000115508,8.1962e-05,4.54803e-05,1.46627e-05,0
0,-4.62335e-06,-2.72947e-05,-7.53458e-05,-0.000154681,-0.000269914,-0.000424519,-0.000620964,-0.000860832,-0.00114493,-0.00147342,-0.00184586,-0.00226138,-0.0027187,-0.00321622,-0.00375211,-0.00432435,-0.00493077,-0.00556912,-0.00623707,-0.00693227,-0.00765234,-0.00839494,-0.0091577,-0.00993834,-0.0107346,-0.0115442,-0.012365,-0.0131948,-0.0140317,-0.0148735,-0.0157182,-0.016564,-0.0174089,-0.018251,-0.0190885,-0.0199196,-0.0207425,-0.0215555,-0.0223568,-0.0231447,-0.0239174,-0.0246733,-0.0254106,-0.0261278,-0.026823,-0.0274948,-0.0281414,-0.0287612,-0.0293526,-0.029914,-0.0304438,-0.0309406,-0.0314028,-0.031829,-0.0322178,-0.0325678,-0.0328777,-0.0331463,-0.0333725,-0.0335551,-0.0336932,-0.033786,-0.0338326,-0.0338324,-0.0337849,-0.0336895,-0.0335462,-0.0333546,-0.0331149,-0.0328272,-0.0324918,-0.0321092,-0.0316801,-0.0312054,-0.0306859,-0.030123,-0.0295179,-0.0288722,-0.0281876,-0.027466,-0.0267094,-0.0259201,-0.0251003,-0.0242526,-0.0233797,-0.0224843,-0.0215694,-0.020638,-0.0196931,-0.018738,-0.017776,-0.0168104,-0.0158446,-0.0148819,-0.0139258,-0.0129796,-0.0120467,-0.0111305,-0.0102342,-0.00936091,-0.00851372,-0.00769557,-0.00690923,-0.00615733,-0.0054423,-0.00476636,-0.00413152,-0.0035395,-0.00299178,-0.00248953,-0.00203358,-0.00162444,-0.00126223,-0.000946644,-0.000676962,-0.000451986,-0.000270013,-0.000128803,-2.55394e-05,4.32041e-05,8.1505e-05,9.41372e-05,8.66338e-05,6.53845e-05,3.77972e-05,1.25567e-05,0
0,-1.00742e-05,-4.71459e-05,-0.000117136,-0.000224933,-0.000374408,-0.000568481,-0.000809198,-0.00109782,-0.0014349,-0.00182038,-0.00225368,-0.00273374,-0.00325915,-0.00382816,-0.00443881,-0.00508891,-0.00577613,-0.00649806,-0.00725219,-0.00803598,-0.00884687,-0.00968229,-0.0105397,-0.0114166,-0.0123105,-0.0132189,-0.0141396,-0.01507,-0.016008,-0.0169512,-0.0178975,-0.0188447,-0.0197907,-0.0207334,-0.0216708,-0.0226008,-0.0235215,-0.0244309,-0.0253269,-0.0262078,-0.0270716,-0.0279164,-0.0287402,-0.0295413,-0.0303178,-0.0310678,-0.0317895,-0.0324811,-0.0331408,-0.0337668,-0.0343575,-0.0349111,-0.035426,-0.0359006,-0.0363334,-0.0367227,-0.0370673,-0.0373658,-0.0376169,-0.0378195,-0.0379724,-0.0380748,-0.0381258,-0.0381247,-0.0380708,-0.0379638,-0.0378034,-0.0375895,-0.037322,-0.0370011,-0.0366274,-0.0362012,-0.0357234,-0.0351949,-0.0346167,-0.0339903,-0.0333171,-0.0325988,-0.0318374,-0.0310347,-0.0301932,-0.0293152,-0.0284034,-0.0274605,-0.0264894,-0.0254932,-0.0244751,-0.0234384,-0.0223865,-0.021323,-0.0202514,-0.0191754,-0.0180987,-0.017025,-0.0159581,-0.0149017,-0.0138594,-0.012835,-0.0118319,-0.0108537,-0.00990367,-0.0089851,-0.00810102,-0.0072543,-0.00644762,-0.00568343,-0.00496392,-0.004291,-0.00366631,-0.00309112,-0.0025664,-0.0020927,-0.0016702,-0.00129862,-0.000977233,-0.000704827,-0.000479658,-0.000299435,-0.000161282,-6.1712e-05,3.41456e-06,3.89278e-05,5.04089e-05,4.42755e-05,2.79116e-05,9.85053e-06,0
0,-1.56729e-05,-6.77297e-05,-0.000160672,-0.000298293,-0.000483619,-0.000718913,-0.0010057,-0.00134484,-0.00173655,-0.00218051,-0.0026759,-0.00322148,-0.00381567,-0.00445656,-0.00514201,-0.00586969,-0.00663713,-0.00744173,-0.00828083,-0.00915172,-0.0100517,-0.0109779,-0.0119277,-0.0128984,-0.0138873,-0.0148918,-0.0159093,-0.0169372,-0.0179731,-0.0190144,-0.0200589,-0.0211041,-0.0221477,-0.0231874,-0.0242211,-0.0252464,-0.0262612,-0.0272633,-0.0282506,-0.029221,-0.0301723,-0.0311025,-0.0320096,-0.0328913,-0.0337458,-0.0345709,-0.0353647,-0.0361253,-0.0368506,-0.0375387,-0.0381878,-0.038796,-0.0393615,-0.0398826,-0.0403576,-0.0407848,-0.0411628,-0.0414901,-0.0417653,-0.0419872,-0.0421546,-0.0422664,-0.0423219,-0.0423202,-0.0422607,-0.042143,-0.0419667,-0.0417318,-0.0414382,-0.0410863,-0.0406763,-0.040209,-0.0396852,-0.0391059,-0.0384722,-0.0377857,-0.037048,-0.0362609,-0.0354264,-0.0345469,-0.0336247,-0.0326624,-0.031663,-0.0306294,-0.0295648,-0.0284724,-0.0273558,-0.0262185,-0.0250643,-0.0238969,-0.0227202,-0.0215382,-0.0203549,-0.0191744,-0.0180006,-0.0168377,-0.0156896,-0.0145602,-0.0134534,-0.012373,-0.0113226,-0.0103058,-0.00932577,-0.0083857,-0.00748848,-0.00663679,-0.005833,-0.0050792,-0.00437719,-0.00372837,-0.00313381,-0.00259416,-0.00210967,-0.0016801,-0.00130477,-0.00098246,-0.000711447,-0.000489433,-0.000313535,-0.000180262,-8.54754e-05,-2.43607e-05,8.62611e-06,1.98232e-05,1.64538e-05,6.73706e-06,0
0,-2.13207e-05,-8.86655e-05,-0.000205159,-0.000373478,-0.000595744,-0.000873492,-0.00120766,-0.00159863,-0.00204622,-0.0025498,-0.00310827,-0.00372017,-0.00438369,-0.00509676,-0.00585706,-0.00666211,-0.00750926,-0.00839578,-0.00931882,-0.0102755,-0.011263,-0.0122783,-0.0133186,-0.014381,-0.0154626,-0.0165606,-0.0176723,-0.0187949,-0.0199258,-0.0210623,-0.0222019,-0.023342,-0.02448,-0.0256136,-0.0267403,-0.0278577,-0.0289634,-0.0300551,-0.0311304,-0.0321871,-0.0332229,-0.0342355,-0.0352227,-0.0361822,-0.0371119,-0.0380094,-0.0388728,-0.0396998,-0.0404884,-0.0412364,-0.0419418,-0.0426027,-0.0432171,-0.0437831,-0.044299,-0.0447629,-0.0451733,-0.0455286,-0.0458274,-0.0460682,-0.0462499,-0.0463714,-0.0464318,-0.0464301,-0.0463658,-0.0462384,-0.0460475,-0.0457931,-0.0454752,-0.0450941,-0.0446502,-0.0441442,-0.0435769,-0.0429496,-0.0422634,-0.04152,-0.0407211,-0.0398686,-0.0389648,-0.0380121,-0.0370131,-0.0359706,-0.0348876,-0.0337674,-0.0326133,-0.0314289,-0.0302179,-0.0289841,-0.0277315,-0.0264642,-0.0251863,-0.0239021,-0.0226158,-0.0213319,-0.0200546,-0.0187882,-0.0175371,-0.0163055,-0.0150974,-0.013917,-0.0127682,-0.0116547,-0.01058,-0.00954763,-0.0085606,-0.00762181,-0.00673384,-0.00589896,-0.0051191,-0.00439584,-0.00373035,-0.0031234,-0.00257531,-0.00208592,-0.00165462,-0.00128023,-0.000961078,-0.000694891,-0.000478833,-0.000309456,-0.00018268,-9.3764e-05,-3.72754e-05,-7.04172e-06,3.89995e-06,3.35462e-06,0
0,-2.69551e-05,-0.000109696,-0.000250042,-0.000449558,-0.000709443,-0.00103046,-0.00141291,-0.00185663,-0.00236101,-0.00292505,-0.00354733,-0.00422613,-0.0049594,-0.00574487,-0.00658004,-0.00746224,-0.00838867,-0.00935643,-0.0103625,-0.0114039,-0.0124776,-0.0135805,-0.0147095,-0.0158617,-0.0170339,-0.0182233,-0.0194269,-0.0206418,-0.0218652,-0.0230942,-0.0243262,-0.0255583,-0.026788,-0.0280126,-0.0292294,-0.030436,-0.0316297,-0.0328081,-0.0339687,-0.035109,-0.0362265,-0.0373188,-0.0383835,-0.0394183,-0.0404206,-0.0413883,-0.042319,-0.0432104,-0.0440602,-0.0448662,-0.0456263,-0.0463383,-0.0470002,-0.0476099,-0.0481656,-0.0486655,-0.0491076,-0.0494905,-0.0498125,-0.0500722,-0.0502684,-0.0503999,-0.0504656,-0.0504647,-0.0503966,-0.0502606,-0.0500566,-0.0497843,-0.0494439,-0.0490356,-0.0485599,-0.0480175,-0.0474094,-0.0467368,-0.0460009,-0.0452036,-0.0443466,-0.0434321,-0.0424623,-0.0414398,-0.0403675,-0.0392483,-0.0380854,-0.0368822,-0.0356423,-0.0343694,-0.0330676,-0.0317408,-0.0303933,-0.0290295,-0.0276537,-0.0262704,-0.0248842,-0.0234997,-0.0221216,-0.0207543,-0.0194025,-0.0180707,-0.0167633,-0.0154845,-0.0142386,-0.0130296,-0.0118612,-0.0107371,-0.00966063,-0.00863484,-0.00766252,-0.00674613,-0.00588776,-0.00508914,-0.00435158,-0.00367597,-0.00306274,-0.00251185,-0.00202273,-0.00159433,-0.00122501,-0.000912606,-0.000654342,-0.000446863,-0.00028619,-0.000167712,-8.61638e-05,-3.56035e-05,-9.39411e-06,-1.97586e-07,0
0,-3.25362e-05,-0.000130651,-0.00029493,-0.000525865,-0.000823725,-0.00118848,-0.00161976,-0.00211684,-0.00267862,-0.00330368,-0.00399028,-0.00473638,-0.00553967,-0.00639767,-0.00730765,-0.00826678,-0.00927207,-0.0103205,-0.0114088,-0.0125339,-0.0136927,-0.0148817,-0.016098,-0.0173383,-0.0185993,-0.0198781,-0.0211716,-0.0224766,-0.0237901,-0.0251094,-0.0264313,-0.0277531,-0.0290719,-0.0303849,-0.0316894,-0.0329826,-0.0342618,-0.0355244,-0.0367677,-0.037989,-0.0391858,-0.0403555,-0.0414955,-0.0426033,-0.0436763,-0.0447121,-0.0457082,-0.0466622,-0.0475716,-0.0484341,-0.0492475,-0.0500094,-0.0507178,-0.0513703,-0.0519652,-0.0525003,-0.0529738,-0.053384,-0.0537293,-0.0540081,-0.0542191,-0.0543611,-0.0544329,-0.0544338,-0.0543629,-0.0542198,-0.0540041,-0.0537156,-0.0533545,-0.0529211,-0.0524158,-0.0518394,-0.0511929,-0.0504775,-0.0496948,-0.0488464,-0.0479343,-0.0469607,-0.045928,-0.044839,-0.0436966,-0.0425038,-0.0412642,-0.0399812,-0.0386587,-0.0373006,-0.0359111,-0.0344944,-0.033055,-0.0315975,-0.0301265,-0.0286468,-0.0271632,-0.0256805,-0.0242037,-0.0227375,-0.0212868,-0.0198564,-0.018451,-0.017075,-0.015733,-0.0144291,-0.0131675,-0.011952,-0.0107861,-0.00967307,-0.00861599,-0.00761745,-0.00667974,-0.00580474,-0.00499392,-0.0042483,-0.00356845,-0.00295444,-0.00240583,-0.00192165,-0.0015004,-0.00113999,-0.000837785,-0.000590536,-0.000394412,-0.000244973,-0.000137165,-6.532e-05,-2.31654e-05,-3.84871e-06,0
0,-3.80397e-05,-0.000151413,-0.000339555,-0.000601921,-0.000937867,-0.00134656,-0.00182695,-0.00237771,-0.00299723,-0.00368365,-0.00443485,-0.00524846,-0.00612191,-0.00705244,-0.00803712,-0.0090729,-0.0101566,-0.0112851,-0.012455,-0.0136629,-0.0149056,-0.0161797,-0.0174819,-0.0188087,-0.020157,-0.0215235,-0.0229049,-0.0242981,-0.0256999,-0.0271072,-0.028517,-0.0299262,-0.0313319,-0.0327311,-0.0341209,-0.0354985,-0.036861,-0.0382055,-0.0395293,-0.0408296,-0.0421036,-0.0433486,-0.044562,-0.0457409,-0.0468828,-0.047985,-0.049045,-0.0500601,-0.0510278,-0.0519457,-0.0528113,-0.0536222,-0.0543762,-0.055071,-0.0557046,-0.0562747,-0.0567795,-0.0572171,-0.0575859,-0.0578842,-0.0581107,-0.0582639,-0.0583429,-0.0583466,-0.0582743,-0.0581254,-0.0578996,-0.0575967,-0.0572169,-0.0567603,-0.0562276,-0.0556195,-0.0549371,-0.0541816,-0.0533546,-0.0524578,-0.0514934,-0.0504635,-0.0493709,-0.0482182,-0.0470086,-0.0457453,-0.0444319,-0.043072,-0.0416698,-0.0402292,-0.0387547,-0.0372507,-0.0357219,-0.0341732,-0.0326093,-0.0310353,-0.0294562,-0.0278772,-0.0263033,-0.0247397,-0.0231915,-0.0216636,-0.020161,-0.0186886,-0.0172509,-0.0158526,-0.0144979,-0.0131908,-0.0119352,-0.0107345,-0.00959201,-0.0085105,-0.00749246,-0.00653995,-0.0056546,-0.0048376,-0.00408967,-0.003411,-0.00280131,-0.00225977,-0.00178498,-0.00137502,-0.00102737,-0.000738954,-0.000506111,-0.000324602,-0.000189616,-9.57879e-05,-3.72228e-05,-7.54876e-06,0
0,-4.34507e-05,-0.00017191,-0.000383734,-0.00067739,-0.00105134,-0.00150397,-0.00203352,-0.00263805,-0.00331543,-0.00406334,-0.00487923,-0.00576042,-0.006704,-0.00770696,-0.00876614,-0.00987828,-0.01104,-0.012248,-0.0134987,-0.0147886,-0.0161143,-0.0174723,-0.0188591,-0.0202713,-0.0217054,-0.0231579,-0.0246257,-0.0261053,-0.0275935,-0.0290871,-0.0305828,-0.0320775,-0.0335681,-0.0350515,-0.0365247,-0.0379847,-0.0394284,-0.040853,-0.0422554,-0.0436328,-0.0449822,-0.0463009,-0.0475859,-0.0488344,-0.0500437,-0.051211,-0.0523335,-0.0534086,-0.0544336,-0.0554059,-0.056323,-0.0571824,-0.0579816,-0.0587183,-0.0593904,-0.0599955,-0.0605318,-0.0609972,-0.0613899,-0.0617084,-0.061951,-0.0621166,-0.0622037,-0.0622116,-0.0621393,-0.0619863,-0.0617522,-0.0614368,-0.0610401,-0.0605626,-0.0600047,-0.0593672,-0.0586512,-0.0578581,-0.0569893,-0.0560468,-0.0550327,-0.0539494,-0.0527994,-0.0515858,-0.0503117,-0.0489805,-0.0475959,-0.0461618,-0.0446823,-0.0431617,-0.0416045,-0.0400155,-0.0383995,-0.0367614,-0.0351065,-0.0334399,-0.031767,-0.030093,-0.0284233,-0.0267633,-0.0251183,-0.0234937,-0.0218945,-0.0203259,-0.0187928,-0.0172999,-0.0158518,-0.0144528,-0.0131069,-0.0118178,-0.010589,-0.00942356,-0.00832405,-0.00729278,-0.00633157,-0.00544177,-0.00462428,-0.00387947,-0.0032072,-0.00260679,-0.00207702,-0.00161611,-0.00122172,-0.00089096,-0.000620353,-0.000405892,-0.000243031,-0.000126715,-5.14304e-05,-1.12633e-05,0
0,-4.87611e-05,-0.000192093,-0.000427342,-0.000752035,-0.00116377,-0.00166016,-0.00223873,-0.00289694,-0.00363212,-0.00444144,-0.00532197,-0.00627063,-0.00728421,-0.0083594,-0.0094928,-0.0106809,-0.0119202,-0.0132071,-0.0145379,-0.0159091,-0.0173169,-0.0187578,-0.0202282,-0.0217244,-0.0232429,-0.0247802,-0.0263329,-0.0278974,-0.0294704,-0.0310485,-0.0326285,-0.034207,-0.0357807,-0.0373466,-0.0389015,-0.0404421,-0.0419654,-0.0434682,-0.0449476,-0.0464005,-0.0478238,-0.0492147,-0.05057,-0.0518868,-0.0531623,-0.0543936,-0.0555777,-0.056712,-0.0577935,-0.0588196,-0.0597877,-0.0606951,-0.0615394,-0.062318,-0.0630287,-0.0636691,-0.0642372,-0.0647309,-0.0651484,-0.0654879,-0.0657478,-0.0659267,-0.0660234,-0.0660369,-0.0659662,-0.0658108,-0.0655702,-0.0652442,-0.0648329,-0.0643365,-0.0637557,-0.0630912,-0.0623441,-0.0615157,-0.0606078,-0.0596221,-0.0585608,-0.0574265,-0.0562218,-0.0549498,-0.0536137,-0.052217,-0.0507636,-0.0492575,-0.047703,-0.0461045,-0.0444667,-0.0427945,-0.041093,-0.0393674,-0.0376229,-0.035865,-0.0340993,-0.0323314,-0.0305667,-0.028811,-0.0270698,-0.0253486,-0.023653,-0.0219882,-0.0203594,-0.0187715,-0.0172295,-0.0157379,-0.0143008,-0.0129224,-0.0116062,-0.0103556,-0.00917329,-0.00806189,-0.00702338,-0.00605933,-0.0051708,-0.00435836,-0.00362204,-0.00296135,-0.00237524,-0.00186212,-0.00141985,-0.00104571,-0.000736461,-0.000488337,-0.000297062,-0.000157898,-6.56959e-05,-1.49698e-05,0
0,-5.3967e-05,-0.000211934,-0.0004703,-0.000825695,-0.00127489,-0.00181472,-0.00244205,-0.0031537,-0.00394644,-0.00481697,-0.00576192,-0.00677781,-0.00786113,-0.00900825,-0.0102155,-0.0114792,-0.0127955,-0.0141607,-0.015571,-0.0170226,-0.0185117,-0.0200346,-0.0215875,-0.0231666,-0.0247684,-0.0263892,-0.0280254,-0.0296734,-0.0313298,-0.032991,-0.0346537,-0.0363144,-0.0379699,-0.0396167,-0.0412516,-0.0428714,-0.0444727,-0.0460525,-0.0476075,-0.0491345,-0.0506304,-0.0520922,-0.0535167,-0.0549009,-0.0562416,-0.057536,-0.0587811,-0.0599738,-0.0611115,-0.0621911,-0.06321,-0.0641654,-0.0650547,-0.0658754,-0.066625,-0.0673013,-0.0679018,-0.0684247,-0.0688678,-0.0692294,-0.0695078,-0.0697015,-0.0698093,-0.06983,-0.0697627,-0.0696067,-0.0693615,-0.069027,-0.0686032,-0.0680903,-0.0674888,-0.0667997,-0.0660238,-0.0651628,-0.064218,-0.0631916,-0.0620857,-0.0609029,-0.0596459,-0.0583178,-0.0569221,-0.0554622,-0.0539422,-0.0523662,-0.0507386,-0.0490641,-0.0473474,-0.0455937,-0.0438081,-0.0419961,-0.0401632,-0.0383151,-0.0364575,-0.0345961,-0.032737,-0.0308858,-0.0290485,-0.0272308,-0.0254384,-0.023677,-0.0219519,-0.0202685,-0.0186317,-0.0170464,-0.0155172,-0.0140482,-0.0126433,-0.011306,-0.0100395,-0.00884651,-0.00772919,-0.00668934,-0.00572824,-0.00484666,-0.00404485,-0.0033225,-0.00267877,-0.00211226,-0.00162104,-0.00120261,-0.00085397,-0.000571593,-0.00035148,-0.000189204,-7.99607e-05,-1.86545e-05,0
0,-5.90672e-05,-0.000231418,-0.000512557,-0.000898262,-0.0013845,-0.00196738,-0.00264307,-0.00340778,-0.00425773,-0.00518912,-0.00619814,-0.00728094,-0.00843361,-0.00965226,-0.0109329,-0.0122717,-0.0136645,-0.0151074,-0.0165965,-0.0181278,-0.0196973,-0.0213013,-0.0229357,-0.0245968,-0.0262807,-0.0279838,-0.0297024,-0.0314326,-0.0331711,-0.0349141,-0.0366582,-0.0383998,-0.0401355,-0.0418619,-0.0435756,-0.0452732,-0.0469514,-0.0486068,-0.0502362,-0.0518362,-0.0534038,-0.0549355,-0.0564283,-0.057879,-0.0592843,-0.0606413,-0.0619468,-0.0631977,-0.0643912,-0.0655242,-0.0665939,-0.0675975,-0.0685322,-0.0693954,-0.0701846,-0.0708974,-0.0715313,-0.0720843,-0.0725542,-0.0729392,-0.0732375,-0.0734476,-0.0735681,-0.0735978,-0.0735357,-0.0733812,-0.0731336,-0.0727928,-0.0723587,-0.0718315,-0.0712118,-0.0705004,-0.0696983,-0.0688069,-0.0678279,-0.0667632,-0.0656151,-0.0643861,-0.0630791,-0.0616973,-0.0602441,-0.0587232,-0.0571385,-0.0554945,-0.0537957,-0.0520467,-0.0502526,-0.0484186,-0.0465502,-0.0446529,-0.0427325,-0.0407947,-0.0388457,-0.0368913,-0.0349377,-0.0329911,-0.0310574,-0.0291428,-0.0272532,-0.0253944,-0.0235722,-0.0217922,-0.0200595,-0.0183794,-0.0167565,-0.0151955,-0.0137004,-0.012275,-0.0109227,-0.0096464,-0.00844861,-0.00733134,-0.00629609,-0.00534384,-0.00447507,-0.00368968,-0.00298706,-0.00236603,-0.00182487,-0.00136131,-0.000972597,-0.000655451,-0.000406149,-0.000220556,-9.41929e-05,-2.23111e-05,0
0,-6.40622e-05,-0.000250536,-0.000554083,-0.000969667,-0.00149249,-0.00211793,-0.00284149,-0.00365879,-0.00456549,-0.00555729,-0.00662993,-0.00777916,-0.00900073,-0.0102904,-0.011644,-0.0130572,-0.0145259,-0.0160459,-0.0176131,-0.0192233,-0.0208725,-0.0225566,-0.0242717,-0.0260137,-0.0277788,-0.0295632,-0.0313629,-0.0331743,-0.0349937,-0.0368173,-0.0386416,-0.0404629,-0.0422777,-0.0440825,-0.0458738,-0.0476481,-0.049402,-0.051132,-0.0528349,-0.0545071,-0.0561453,-0.0577463,-0.0593068,-0.0608233,-0.0622928,-0.063712,-0.0650776,-0.0663867,-0.0676359,-0.0688225,-0.0699433,-0.0709954,-0.0719761,-0.0728825,-0.0737121,-0.0744623,-0.0751307,-0.075715,-0.0762131,-0.076623,-0.0769428,-0.077171,-0.077306,-0.0773467,-0.0772919,-0.077141,-0.0768932,-0.0765483,-0.0761063,-0.0755673,-0.0749318,-0.0742005,-0.0733747,-0.0724555,-0.0714446,-0.0703441,-0.0691561,-0.0678834,-0.0665287,-0.0650953,-0.0635867,-0.0620066,-0.0603593,-0.058649,-0.0568804,-0.0550585,-0.0531883,-0.0512752,-0.0493249,-0.047343,-0.0453356,-0.0433086,-0.0412683,-0.039221,-0.0371729,-0.0351304,-0.0330999,-0.0310877,-0.0291,-0.0271429,-0.0252224,-0.0233445,-0.0215145,-0.019738,-0.01802,-0.0163653,-0.0147783,-0.013263,-0.0118231,-0.0104617,-0.00918174,-0.00798531,-0.00687423,-0.00584972,-0.00491248,-0.00406267,-0.00329989,-0.00262321,-0.00203113,-0.00152164,-0.00109221,-0.000739815,-0.000461007,-0.000251925,-0.000108382,-2.59382e-05,0
0,-6.89538e-05,-0.000269289,-0.000594863,-0.00103986,-0.00159875,-0.00226621,-0.00303711,-0.00390644,-0.00486933,-0.00592099,-0.0070567,-0.00827181,-0.00956172,-0.0109219,-0.0123477,-0.0138349,-0.0153788,-0.0169752,-0.0186198,-0.0203082,-0.0220362,-0.0237997,-0.0255944,-0.0274165,-0.0292618,-0.0311264,-0.0330063,-0.0348978,-0.036797,-0.0387002,-0.0406036,-0.0425036,-0.0443964,-0.0462786,-0.0481465,-0.0499965,-0.0518252,-0.053629,-0.0554045,-0.0571481,-0.0588565,-0.0605261,-0.0621537,-0.0637359,-0.0652692,-0.0667504,-0.0681762,-0.0695434,-0.0708487,-0.0720891,-0.0732615,-0.0743628,-0.0753901,-0.0763406,-0.0772116,-0.0780004,-0.0787046,-0.0793217,-0.0798495,-0.0802859,-0.080629,-0.0808772,-0.0810288,-0.0810825,-0.0810373,-0.0808922,-0.0806466,-0.0803001,-0.0798526,-0.0793042,-0.0786554,-0.0779069,-0.0770598,-0.0761153,-0.0750751,-0.0739411,-0.0727157,-0.0714015,-0.0700013,-0.0685185,-0.0669565,-0.0653193,-0.0636109,-0.061836,-0.0599992,-0.0581055,-0.0561603,-0.0541691,-0.0521376,-0.0500717,-0.0479777,-0.0458616,-0.0437301,-0.0415895,-0.0394465,-0.0373076,-0.0351795,-0.0330687,-0.0309818,-0.0289251,-0.026905,-0.0249276,-0.0229988,-0.0211242,-0.0193092,-0.0175589,-0.0158781,-0.0142709,-0.0127415,-0.0112932,-0.00992902,-0.00865161,-0.00746292,-0.00636446,-0.00535719,-0.00444151,-0.00361728,-0.0028838,-0.00223982,-0.00168358,-0.00121279,-0.000824684,-0.000516058,-0.000283316,-0.000122535,-2.95392e-05,0
0,-7.37442e-05,-0.000287676,-0.00063489,-0.00110883,-0.00170324,-0.00241214,-0.00322975,-0.00415049,-0.00516895,-0.00627983,-0.00747799,-0.00875835,-0.0101159,-0.0115459,-0.0130434,-0.0146038,-0.0162223,-0.0178944,-0.0196155,-0.0213813,-0.0231874,-0.0250293,-0.026903,-0.0288042,-0.0307287,-0.0326726,-0.0346318,-0.0366024,-0.0385805,-0.0405622,-0.0425438,-0.0445215,-0.0464915,-0.0484501,-0.0503937,-0.0523187,-0.0542214,-0.0560983,-0.0579458,-0.0597602,-0.0615382,-0.0632762,-0.0649707,-0.0666182,-0.0682153,-0.0697585,-0.0712447,-0.0726703,-0.0740321,-0.0753268,-0.0765514,-0.0777027,-0.0787776,-0.0797733,-0.0806869,-0.0815157,-0.0822571,-0.0829085,-0.0834677,-0.0839326,-0.084301,-0.0845712,-0.0847415,-0.0848106,-0.0847772,-0.0846404,-0.0843994,-0.0840538,-0.0836034,-0.0830483,-0.0823889,-0.0816257,-0.0807599,-0.0797927,-0.0787256,-0.0775608,-0.0763003,-0.0749469,-0.0735035,-0.0719733,-0.0703599,-0.0686673,-0.0668996,-0.0650615,-0.0631578,-0.0611937,-0.0591744,-0.0571058,-0.0549937,-0.0528442,-0.0506637,-0.0484586,-0.0462356,-0.0440014,-0.0417628,-0.0395267,-0.0372999,-0.0350894,-0.0329019,-0.0307442,-0.0286228,-0.0265442,-0.0245146,-0.0225399,-0.020626,-0.018778,-0.0170012,-0.0153001,-0.013679,-0.0121416,-0.0106913,-0.0093309,-0.00806272,-0.00688854,-0.00580958,-0.00482651,-0.00393946,-0.00314798,-0.00245109,-0.00184725,-0.00133444,-0.000910128,-0.000571356,-0.000314767,-0.00013667,-3.31206e-05,0