-0,-0,-0,-0,-0,-0,-0,-0,-0,-0,-0,-0,-0,-0,-0,-0,-0,-0,-0,-0,-0,-0,-0,-0,-0,-0,-0,-0,-0,-0,-0,-0,-0,-0,-0,-0,-0,-0,-0,-0,-0,-0,-0,-0,-0,-0,-0,-0,-0,-0,-0,-0,-0,-0,-0,-0,-0,-0,-0,-0,-0,-0,-0,-0,-0,-0,-0,-0,-0,-0,-0,-0,-0,-0,-0,-0,-0,-0,-0,-0,-0,-0,-0,-0,-0,-0,-0,-0,-0,-0,-0,-0,-0,-0,-0,-0,-0,-0,-0,-0,-0,-0,-0,-0,-0,-0,-0,-0,-0,-0,-0,-0,-0,-0,-0,-0,-0,-0,-0,-0,-0,-0,-0,-0,-0,-0,-0,-0
-0,-6.39854e-06,-1.03243e-05,-1.07355e-05,-8.61954e-06,-4.93521e-06,-3.46711e-07,4.7166e-06,9.97872e-06,1.52602e-05,2.0443e-05,2.54493e-05,3.0228e-05,3.47467e-05,3.89859e-05,4.29355e-05,4.65923e-05,4.99575e-05,5.30362e-05,5.58356e-05,5.83649e-05,6.06339e-05,6.26535e-05,6.44346e-05,6.5988e-05,6.73243e-05,6.84537e-05,6.93858e-05,7.01295e-05,7.06931e-05,7.10839e-05,7.13085e-05,7.13729e-05,7.12819e-05,7.10399e-05,7.06503e-05,7.0116e-05,6.94391e-05,6.86212e-05,6.76633e-05,6.6566e-05,6.53296e-05,6.39538e-05,6.24384e-05,6.07829e-05,5.89867e-05,5.70492e-05,5.497e-05,5.27487e-05,5.03853e-05,4.788e-05,4.52334e-05,4.24465e-05,3.95211e-05,3.64592e-05,3.32637e-05,2.99381e-05,2.64866e-05,2.29143e-05,1.9227e-05,1.54314e-05,1.15351e-05,7.54653e-06,3.47507e-06,-6.69041e-07,-4.87468e-06,-9.12985e-06,-1.34217e-05,-1.77366e-05,-2.206e-05,-2.6377e-05,-3.06716e-05,-3.49274e-05,-3.91277e-05,-4.3255e-05,-4.72918e-05,-5.12201e-05,-5.50219e-05,-5.86793e-05,-6.21743e-05,-6.54892e-05,-6.86068e-05,-7.151e-05,-7.41828e-05,-7.66096e-05,-7.87756e-05,-8.06673e-05,-8.2272e-05,-8.35782e-05,-8.4576e-05,-8.52567e-05,-8.56129e-05,-8.56393e-05,-8.53317e-05,-8.46879e-05,-8.37074e-05,-8.23915e-05,-8.07432e-05,-7.87676e-05,-7.64712e-05,-7.38629e-05,-7.0953e-05,-6.77537e-05,-6.42792e-05,-6.05454e-05,-5.65701e-05,-5.23729e-05,-4.79756e-05,-4.34017e-05,-3.86774e-05,-3.3831e-05,-2.8894e-05,-2.39011e-05,-1.88915e-05,-1.39096e-05,-9.00666e-06,-4.24292e-06,3.0911e-07,4.56027e-06,8.39811e-06,1.16771e-05,1.42044e-05,1.57197e-05,1.58729e-05,1.42199e-05,1.03373e-05,4.44686e-06,-0
-0,-2.01756e-05,-2.93397e-05,-2.85842e-05,-2.04568e-05,-7.34346e-06,8.91895e-06,2.70096e-05,4.60007e-05,6.5245e-05,8.42914e-05,0.000102827,0.000120636,0.000137573,0.000153545,0.000168494,0.000182394,0.000195234,0.000207022,0.000217775,0.00022752,0.000236287,0.000244109,0.000251024,0.000257068,0.000262278,0.000266688,0.000270334,0.000273245,0.000275454,0.000276985,0.000277863,0.00027811,0.000277745,0.000276782,0.000275237,0.000273119,0.000270437,0.000267197,0.000263405,0.000259063,0.000254173,0.000248735,0.000242749,0.000236214,0.00022913,0.000221495,0.000213308,0.00020457,0.000195282,0.000185446,0.000175065,0.000164145,0.000152693,0.000140719,0.000128236,0.000115257,0.000101799,8.78847e-05,7.35357e-05,5.87793e-05,4.36451e-05,2.81665e-05,1.23799e-05,-3.67473e-06,-1.99544e-05,-3.64126e-05,-5.29999e-05,-6.96638e-05,-8.63491e-05,-0.000102998,-0.000119549,-0.000135942,-0.00015211,-0.000167989,-0.000183512,-0.000198611,-0.000213217,-0.000227262,-0.00024068,-0.000253402,-0.000265365,-0.000276504,-0.000286758,-0.000296069,-0.000304381,-0.000311644,-0.00031781,-0.000322837,-0.000326686,-0.000329326,-0.00033073,-0.000330876,-0.000329751,-0.000327347,-0.000323661,-0.0003187,-0.000312476,-0.000305008,-0.000296322,-0.000286452,-0.000275439,-0.00026333,-0.000250181,-0.000236052,-0.000221014,-0.000205143,-0.000188524,-0.00017125,-0.000153423,-0.000135156,-0.000116572,-9.78091e-05,-7.902e-05,-6.03793e-05,-4.20867e-05,-2.43744e-05,-7.51779e-06,8.15209e-06,2.22296e-05,3.42108e-05,4.34632e-05,4.91953e-05,5.04425e-05,4.61331e-05,3.54053e-05,1.86171e-05,-0
-0,-3.58001e-05,-4.88453e-05,-4.38572e-05,-2.54885e-05,2.25259e-06,3.61901e-05,7.39196e-05,0.000113664,0.000154124,0.000194359,0.000233693,0.000271645,0.000307879,0.000342168,0.000374367,0.000404391,0.000432203,0.0004578,0.000481204,0.000502458,0.000521616,0.000538742,0.000553905,0.000567178,0.000578632,0.00058834,0.000596369,0.000602786,0.00060765,0.000611018,0.00061294,0.000613461,0.000612622,0.000610455,0.000606989,0.000602249,0.000596254,0.000589017,0.000580551,0.000570862,0.000559955,0.000547834,0.000534499,0.000519949,0.000504185,0.000487206,0.000469014,0.000449609,0.000428997,0.000407184,0.000384181,0.00036,0.000334662,0.000308187,0.000280605,0.000251949,0.00022226,0.000191583,0.000159971,0.000127483,9.41866e-05,6.01545e-05,2.54677e-05,-9.78624e-06,-4.55125e-05,-8.16096e-05,-0.000117969,-0.000154477,-0.000191013,-0.00022745,-0.000263658,-0.000299501,-0.00033484,-0.000369533,-0.000403435,-0.0004364,-0.00046828,-0.000498929,-0.000528202,-0.000555954,-0.000582045,-0.000606338,-0.000628703,-0.000649015,-0.000667154,-0.000683011,-0.000696486,-0.000707485,-0.00071593,-0.000721751,-0.000724891,-0.000725306,-0.000722966,-0.000717854,-0.000709968,-0.000699321,-0.000685941,-0.000669869,-0.000651165,-0.000629902,-0.000606168,-0.00058007,-0.000551727,-0.000521277,-0.000488871,-0.000454679,-0.000418889,-0.000381706,-0.000343355,-0.000304084,-0.000264168,-0.000223908,-0.000183643,-0.000143754,-0.000104675,-6.69057e-05,-3.10293e-05,2.26407e-06,3.21498e-05,5.76342e-05,7.7518e-05,9.03692e-05,9.45365e-05,8.82736e-05,7.01245e-05,3.98254e-05,-0
-0,-4.89455e-05,-6.26022e-05,-4.93563e-05,-1.61785e-05,3.12104e-05,8.82482e-05,0.000151387,0.000217915,0.000285789,0.000353481,0.000419862,0.000484107,0.000545625,0.000604002,0.000658963,0.000710336,0.000758031,0.000802019,0.000842317,0.000878976,0.000912075,0.000941706,0.000967976,0.000990997,0.00101088,0.00102775,0.0010417,0.00105285,0.0010613,0.00106713,0.00107043,0.00107128,0.00106973,0.00106586,0.00105971,0.00105131,0.00104071,0.00102793,0.00101298,0.000995884,0.000976653,0.000955291,0.000931803,0.00090619,0.000878456,0.000848602,0.000816632,0.000782554,0.000746378,0.000708118,0.000667796,0.000625439,0.000581081,0.000534765,0.000486542,0.000436475,0.000384634,0.000331101,0.000275971,0.000219348,0.000161349,0.000102104,4.17518e-05,-1.95535e-05,-8.16475e-05,-0.000144354,-0.000207486,-0.000270846,-0.000334225,-0.000397406,-0.000460165,-0.000522269,-0.000583477,-0.000643547,-0.000702229,-0.000759274,-0.00081443,-0.000867445,-0.000918072,-0.000966064,-0.00101118,-0.0010532,-0.00109188,-0.00112702,-0.00115841,-0.00118587,-0.00120923,-0.00122833,-0.00124303,-0.00125322,-0.0012588,-0.0012597,-0.00125586,-0.00124727,-0.00123391,-0.00121581,-0.00119302,-0.00116561,-0.00113369,-0.00109738,-0.00105684,-0.00101224,-0.000963812,-0.000911776,-0.000856404,-0.00079799,-0.000736859,-0.00067337,-0.000607917,-0.00054093,-0.000472884,-0.000404306,-0.00033578,-0.000267959,-0.000201583,-0.000137496,-7.66695e-05,-2.02337e-05,3.04882e-05,7.39408e-05,0.000108299,0.000131452,0.000141026,0.000134521,0.000109622,6.47831e-05,-0
-0,-5.65674e-05,-6.5948e-05,-3.96083e-05,1.32782e-05,8.53112e-05,0.000170565,0.000264356,0.000363022,0.000463739,0.000564344,0.000663204,0.000759096,0.000851126,0.000938652,0.00102123,0.00109858,0.00117052,0.00123699,0.00129798,0.00135356,0.0014038,0.00144884,0.00148881,0.00152387,0.00155417,0.00157988,0.00160116,0.00161815,0.001631,0.00163984,0.00164479,0.00164597,0.00164346,0.00163736,0.00162774,0.00161465,0.00159816,0.00157829,0.00155509,0.00152858,0.00149876,0.00146567,0.0014293,0.00138966,0.00134677,0.00130062,0.00125123,0.00119861,0.00114278,0.00108378,0.00102163,0.000956378,0.000888088,0.000816825,0.000742673,0.000665729,0.000586105,0.000503929,0.000419349,0.000332526,0.00024364,0.000152891,6.04942e-05,-3.3316e-05,-0.000128288,-0.000224154,-0.000320627,-0.000417407,-0.000514179,-0.000610613,-0.000706367,-0.00080109,-0.000894419,-0.000985987,-0.00107542,-0.00116233,-0.00124636,-0.00132711,-0.00140421,-0.0014773,-0.00154602,-0.00161001,-0.00166894,-0.00172249,-0.00177035,-0.00181226,-0.00184794,-0.00187716,-0.00189973,-0.00191547,-0.00192423,-0.00192591,-0.00192042,-0.00190773,-0.00188784,-0.00186078,-0.00182663,-0.00178551,-0.00173756,-0.00168299,-0.00162204,-0.00155497,-0.00148211,-0.00140382,-0.00132052,-0.00123264,-0.00114069,-0.00104522,-0.000946826,-0.000846164,-0.000743959,-0.000641009,-0.000538196,-0.000436504,-0.000337035,-0.000241034,-0.000149919,-6.5314e-05,1.09122e-05,7.66044e-05,0.000129287,0.000166144,0.000184047,0.000179643,0.000149543,9.05845e-05,-0
-0,-5.66322e-05,-5.55246e-05,-1.05076e-05,6.73449e-05,0.000169094,0.000287534,0.000416895,0.000552595,0.00069103,0.000829393,0.00096552,0.00109777,0.0012249,0.00134603,0.0014605,0.0015679,0.00166796,0.00176055,0.00184563,0.00192325,0.00199351,0.00205656,0.00211256,0.00216172,0.00220423,0.0022403,0.00227015,0.00229396,0.00231192,0.00232423,0.00233103,0.00233247,0.0023287,0.00231981,0.00230592,0.00228711,0.00226345,0.002235,0.0022018,0.00216388,0.00212129,0.00207403,0.00202212,0.00196559,0.00190444,0.00183869,0.00176835,0.00169346,0.00161405,0.00153017,0.00144186,0.0013492,0.00125227,0.00115118,0.00104605,0.000937023,0.000824255,0.000707935,0.000588271,0.000465496,0.000339867,0.000211664,8.1195e-05,-5.12109e-05,-0.000185199,-0.000320391,-0.000456386,-0.000592762,-0.000729078,-0.000864871,-0.000999666,-0.00113297,-0.00126428,-0.00139308,-0.00151885,-0.00164106,-0.00175918,-0.0018727,-0.00198109,-0.00208383,-0.00218043,-0.00227041,-0.00235329,-0.00242863,-0.00249602,-0.00255506,-0.00260541,-0.00264673,-0.00267874,-0.00270121,-0.00271393,-0.00271676,-0.00270959,-0.00269237,-0.0026651,-0.00262783,-0.00258066,-0.00252377,-0.00245736,-0.00238172,-0.00229717,-0.00220412,-0.002103,-0.00199433,-0.00187869,-0.0017567,-0.00162907,-0.00149656,-0.00136002,-0.00122038,-0.00107863,-0.000935903,-0.000793412,-0.000652517,-0.000514728,-0.000381735,-0.00025544,-0.000137997,-3.18471e-05,6.02353e-05,0.000135108,0.000189238,0.000218704,0.000219231,0.00018625,0.000114925,-0
-0,-4.78276e-05,-2.89977e-05,4.09466e-05,0.000149395,0.000286078,0.000442638,0.000612304,0.00078963,0.000970267,0.00115077,0.00132846,0.00150125,0.00166757,0.00182623,0.00197638,0.00211745,0.00224905,0.00237097,0.00248315,0.0025856,0.00267843,0.0027618,0.00283591,0.00290099,0.00295729,0.00300507,0.00304457,0.00307604,0.00309973,0.00311586,0.00312463,0.00312623,0.00312083,0.00310858,0.00308961,0.00306402,0.00303192,0.00299338,0.00294847,0.00289722,0.00283969,0.0027759,0.00270588,0.00262966,0.00254726,0.00245871,0.00236403,0.00226328,0.0021565,0.00204375,0.00192513,0.00180073,0.00167066,0.00153508,0.00139415,0.00124806,0.00109704,0.00094134,0.000781239,0.000617052,0.000449123,0.00027783,0.000103582,-7.31799e-05,-0.000251983,-0.000432326,-0.000613674,-0.00079547,-0.000977126,-0.00115803,-0.00133756,-0.00151506,-0.00168986,-0.00186129,-0.00202865,-0.00219126,-0.00234842,-0.00249945,-0.00264364,-0.00278035,-0.00290889,-0.00302864,-0.003139,-0.00323936,-0.00332919,-0.00340797,-0.00347524,-0.00353058,-0.00357361,-0.00360402,-0.00362156,-0.00362601,-0.00361726,-0.00359523,-0.00355993,-0.00351142,-0.00344985,-0.00337543,-0.00328846,-0.0031893,-0.00307839,-0.00295626,-0.00282351,-0.00268081,-0.00252892,-0.00236868,-0.00220103,-0.00202698,-0.00184765,-0.00166426,-0.00147814,-0.00129076,-0.00110372,-0.000918783,-0.000737899,-0.000563236,-0.000397209,-0.00024252,-0.000102201,2.0346e-05,0.000121305,0.000196414,0.000240943,0.00024967,0.000216842,0.000136065,-0
-0,-2.93375e-05,1.51978e-05,0.000116878,0.000261913,0.000438932,0.000638585,0.000853208,0.00107657,0.00130362,0.00153032,0.00175349,0.0019706,0.00217974,0.00237944,0.00256863,0.00274656,0.00291273,0.00306685,0.00320878,0.00333853,0.00345618,0.00356192,0.00365596,0.00373858,0.00381006,0.0038707,0.0039208,0.00396065,0.00399055,0.00401077,0.00402155,0.00402312,0.0040157,0.00399946,0.00397457,0.00394116,0.00389936,0.00384925,0.00379093,0.00372446,0.00364989,0.00356726,0.00347663,0.00337802,0.00327147,0.00315702,0.00303473,0.00290464,0.00276685,0.00262143,0.0024685,0.0023082,0.00214069,0.00196615,0.00178481,0.00159692,0.00140278,0.00120271,0.000997077,0.000786284,0.000570778,0.000351042,0.000127603,-9.8976e-05,-0.00032809,-0.000559097,-0.000791319,-0.00102404,-0.00125652,-0.00148798,-0.00171762,-0.00194462,-0.00216813,-0.00238728,-0.00260122,-0.00280907,-0.00300994,-0.00320296,-0.00338728,-0.00356203,-0.00372638,-0.00387954,-0.00402073,-0.00414922,-0.00426431,-0.00436536,-0.00445178,-0.00452305,-0.00457868,-0.0046183,-0.00464156,-0.00464822,-0.00463813,-0.00461118,-0.00456738,-0.00450684,-0.00442972,-0.00433631,-0.00422698,-0.00410219,-0.00396251,-0.00380861,-0.00364124,-0.00346126,-0.00326966,-0.00306749,-0.00285594,-0.0026363,-0.00241,-0.00217857,-0.00194371,-0.00170726,-0.00147121,-0.00123778,-0.00100939,-0.000788684,-0.000578624,-0.000382471,-0.000203854,-4.68091e-05,8.41751e-05,0.00018411,0.000247457,0.000268068,0.000239078,0.000152723,-0
-0,-6.8176e-07,7.80639e-05,0.000218733,0.000406667,0.000629626,0.000877428,0.00114164,0.00141533,0.00169283,0.00196955,0.00224182,0.00250672,0.00276199,0.00300589,0.00323712,0.00345477,0.0036582,0.00384703,0.00402107,0.00418028,0.00432474,0.00445464,0.00457022,0.00467178,0.00475963,0.00483413,0.00489562,0.00494444,0.00498093,0.0050054,0.00501815,0.00501946,0.00500956,0.00498868,0.00495701,0.00491472,0.00486195,0.00479882,0.00472544,0.00464188,0.00454822,0.00444452,0.00433084,0.00420722,0.00407372,0.00393039,0.00377732,0.00361458,0.00344226,0.0032605,0.00306944,0.00286926,0.00266017,0.0024424,0.00221625,0.00198204,0.00174013,0.00149093,0.00123491,0.000972567,0.000704461,0.000431193,0.000153416,-0.000128169,-0.000412813,-0.000699721,-0.000988057,-0.00127694,-0.00156545,-0.00185263,-0.00213749,-0.00241902,-0.00269619,-0.00296794,-0.00323319,-0.00349087,-0.00373991,-0.00397923,-0.00420777,-0.0044245,-0.00462838,-0.00481844,-0.00499374,-0.00515336,-0.00529647,-0.00542228,-0.00553006,-0.00561916,-0.00568902,-0.00573915,-0.00576915,-0.00577871,-0.00576764,-0.00573582,-0.00568328,-0.00561011,-0.00551655,-0.00540294,-0.00526973,-0.00511751,-0.00494697,-0.00475892,-0.00455431,-0.0043342,-0.00409979,-0.00385239,-0.00359345,-0.00332459,-0.00304753,-0.00276417,-0.00247657,-0.00218697,-0.00189781,-0.00161175,-0.00133169,-0.00106081,-0.000802601,-0.000560896,-0.000339923,-0.000144351,2.06649e-05,0.00014942,0.000235596,0.000272167,0.000251267,0.000163977,-0
-0,3.83922e-05,0.000160197,0.000347441,0.000584861,0.000859552,0.00116067,0.00147913,0.00180741,0.00213928,0.00246967,0.00279446,0.00311037,0.00341481,0.00370578,0.00398177,0.00424169,0.00448478,0.00471055,0.00491877,0.00510935,0.00528237,0.00543799,0.0055765,0.0056982,0.00580345,0.00589265,0.00596617,0.00602442,0.00606776,0.00609658,0.00611119,0.00611192,0.00609906,0.00607285,0.00603353,0.00598129,0.00591629,0.0058387,0.00574862,0.00564617,0.00553143,0.00540447,0.00526538,0.00511422,0.00495106,0.00477599,0.00458909,0.00439048,0.00418028,0.00395865,0.00372579,0.00348192,0.00322729,0.00296221,0.00268704,0.00240217,0.00210805,0.00180519,0.00149415,0.00117555,0.000850052,0.000518401,0.000181384,-0.00016015,-0.000505296,-0.000853095,-0.00120254,-0.00155256,-0.00190206,-0.00224988,-0.00259485,-0.00293573,-0.0032713,-0.00360027,-0.00392137,-0.00423331,-0.00453479,-0.00482454,-0.00510129,-0.00536378,-0.00561079,-0.00584116,-0.00605374,-0.00624746,-0.00642131,-0.00657434,-0.0067057,-0.00681459,-0.00690035,-0.00696238,-0.00700021,-0.00701348,-0.00700194,-0.00696548,-0.00690409,-0.00681792,-0.00670724,-0.00657246,-0.00641413,-0.00623295,-0.00602974,-0.00580549,-0.00556133,-0.00529855,-0.00501857,-0.00472297,-0.00441352,-0.00409211,-0.00376083,-0.00342195,-0.00307792,-0.0027314,-0.00238528,-0.00204268,-0.00170702,-0.001382,-0.00107165,-0.000780383,-0.000513025,-0.000274869,-7.17259e-05,9.00082e-05,0.000203273,0.00026024,0.000252164,0.000169176,-0
-0,8.79837e-05,0.000261903,0.000503546,0.000797252,0.00112964,0.00148935,0.00186678,0.00225389,0.002644,0.0030316,0.00341219,0.00378214,0.00413858,0.00447926,0.00480248,0.00510698,0.00539187,0.00565659,0.00590082,0.00612445,0.00632754,0.00651025,0.00667288,0.00681575,0.00693927,0.00704385,0.00712993,0.00719795,0.00724833,0.00728147,0.00729777,0.00729757,0.0072812,0.00724895,0.00720108,0.00713782,0.00705936,0.00696587,0.00685751,0.00673439,0.00659662,0.0064443,0.00627752,0.00609637,0.00590094,0.00569134,0.00546769,0.00523012,0.00497881,0.00471394,0.00443576,0.00414454,0.00384059,0.00352429,0.00319607,0.00285641,0.00250584,0.00214498,0.0017745,0.00139513,0.00100767,0.000613006,0.000212068,-0.000194136,-0.000604534,-0.00101799,-0.00143331,-0.00184924,-0.00226448,-0.00267767,-0.00308741,-0.00349226,-0.00389077,-0.00428144,-0.00466276,-0.00503322,-0.0053913,-0.00573548,-0.00606428,-0.00637623,-0.0066699,-0.00694391,-0.00719692,-0.00742767,-0.00763497,-0.00781772,-0.00797488,-0.00810556,-0.00820895,-0.00828436,-0.00833124,-0.00834915,-0.00833781,-0.00829707,-0.00822695,-0.00812759,-0.00799933,-0.00784264,-0.00765817,-0.00744673,-0.00720932,-0.00694708,-0.00666135,-0.00635363,-0.00602561,-0.00567915,-0.00531631,-0.00493933,-0.00455065,-0.00415292,-0.00374901,-0.00334201,-0.00293528,-0.00253243,-0.00213738,-0.00175435,-0.00138794,-0.00104314,-0.000725358,-0.000440505,-0.000195027,4.0159e-06,0.000148874,0.000230992,0.000240871,0.000167876,-0
-0,0.000148089,0.000383283,0.000687303,0.00104426,0.00144045,0.00186413,0.0023053,0.00275552,0.00320771,0.00365599,0.00409554,0.00452244,0.00493356,0.00532642,0.00569914,0.00605032,0.00637896,0.0066844,0.00696628,0.00722444,0.00745893,0.00766991,0.00785767,0.00802259,0.00816509,0.00828562,0.00838466,0.00846269,0.00852018,0.00855757,0.0085753,0.00857376,0.00855331,0.00851428,0.00845695,0.0083816,0.00828844,0.00817767,0.00804945,0.00790393,0.00774125,0.00756151,0.00736484,0.00715134,0.00692113,0.00667434,0.00641112,0.00613164,0.00583611,0.00552477,0.00519789,0.00485582,0.00449893,0.00412768,0.00374256,0.00334414,0.00293308,0.00251007,0.00207591,0.00163147,0.00117768,0.000715563,0.000246221,-0.000229175,-0.000709376,-0.00119306,-0.00167884,-0.00216526,-0.0026508,-0.00313389,-0.00361291,-0.0040862,-0.00455205,-0.00500874,-0.00545452,-0.00588764,-0.00630633,-0.00670887,-0.0070935,-0.00745855,-0.00780235,-0.0081233,-0.00841987,-0.00869058,-0.00893406,-0.00914903,-0.0093343,-0.00948883,-0.00961168,-0.00970205,-0.0097593,-0.00978292,-0.00977258,-0.00972811,-0.00964951,-0.00953697,-0.00939086,-0.00921173,-0.00900033,-0.0087576,-0.00848467,-0.00818289,-0.0078538,-0.00749913,-0.00712084,-0.00672108,-0.00630223,-0.00586687,-0.00541782,-0.00495813,-0.00449108,-0.00402023,-0.0035494,-0.00308269,-0.00262454,-0.00217972,-0.00175337,-0.00135105,-0.000978768,-0.000643022,-0.000350877,-0.000110018,7.11649e-05,0.00018347,0.000216758,0.000159782,-0
-0,0.000218634,0.000524296,0.00089876,0.00132605,0.00179226,0.00228538,0.00279513,0.00331275,0.00383085,0.00434326,0.00484488,0.00533153,0.00579987,0.00624724,0.00667159,0.00707139,0.00744555,0.00779333,0.00811431,0.00840831,0.00867535,0.00891561,0.00912939,0.00931708,0.00947914,0.00961606,0.00972836,0.00981655,0.00988114,0.00992263,0.00994149,0.00993815,0.00991302,0.00986644,0.00979876,0.00971025,0.00960116,0.00947173,0.00932213,0.00915254,0.00896312,0.00875399,0.0085253,0.00827717,0.00800976,0.00772322,0.00741773,0.0070935,0.00675078,0.00638985,0.00601106,0.00561479,0.0052015,0.00477171,0.004326,0.00386505,0.0033896,0.00290048,0.00239859,0.00188495,0.00136064,0.000826828,0.000284783,-0.000264145,-0.000818523,-0.00137683,-0.00193748,-0.0024988,-0.00305906,-0.00361644,-0.0041691,-0.00471514,-0.00525261,-0.00577953,-0.00629391,-0.00679374,-0.00727702,-0.00774174,-0.00818595,-0.00860769,-0.00900507,-0.00937627,-0.00971952,-0.0100331,-0.0103156,-0.0105653,-0.0107811,-0.0109616,-0.0111059,-0.0112129,-0.0112819,-0.0113125,-0.0113041,-0.0112566,-0.01117,-0.0110444,-0.0108804,-0.0106785,-0.0104396,-0.0101647,-0.00985519,-0.00951253,-0.0091385,-0.00873509,-0.00830451,-0.00784922,-0.00737193,-0.00687557,-0.00636336,-0.00583874,-0.00530545,-0.00476748,-0.00422914,-0.00369506,-0.00317016,-0.00265978,-0.00216961,-0.00170576,-0.00127482,-0.000883877,-0.00054059,-0.000253232,-3.07793e-05,0.000116992,0.0001794,0.000144711,-0
-0,0.000299502,0.000684799,0.00113781,0.00164257,0.0021851,0.00275322,0.00333644,0.0039258,0.00451365,0.00509361,0.00566035,0.0062095,0.00673753,0.00724162,0.00771961,0.00816984,0.00859114,0.00898272,0.00934411,0.00967511,0.00997572,0.0102461,0.0104867,0.0106978,0.0108799,0.0110335,0.0111592,0.0112577,0.0113293,0.0113747,0.0113943,0.0113887,0.0113582,0.0113033,0.0112244,0.0111216,0.0109954,0.010846,0.0106735,0.0104782,0.0102603,0.0100199,0.00975712,0.00947219,0.00916525,0.00883651,0.00848616,0.00811447,0.00772171,0.00730824,0.00687444,0.00642077,0.00594776,0.005456,0.00494619,0.00441908,0.00387553,0.00331649,0.002743,0.00215621,0.00155735,0.00094776,0.000328878,-0.000297762,-0.000930533,-0.00156771,-0.00220749,-0.00284799,-0.00348723,-0.00412317,-0.00475372,-0.00537672,-0.00598998,-0.00659126,-0.0071783,-0.00774884,-0.00830061,-0.00883134,-0.00933882,-0.00982084,-0.0102753,-0.0107,-0.0110931,-0.0114527,-0.0117769,-0.0120641,-0.0123128,-0.0125216,-0.0126892,-0.0128147,-0.0128972,-0.012936,-0.0129307,-0.012881,-0.012787,-0.0126488,-0.012467,-0.0122422,-0.0119753,-0.0116677,-0.0113206,-0.010936,-0.0105156,-0.0100618,-0.00957712,-0.00906424,-0.00852624,-0.00796642,-0.00738838,-0.00679599,-0.00619343,-0.00558517,-0.004976,-0.00437104,-0.00377578,-0.00319606,-0.00263812,-0.00210867,-0.00161483,-0.00116428,-0.000765229,-0.000426513,-0.000157649,3.1077e-05,0.000128519,0.00012256,-0
-0,0.000390544,0.00086458,0.00140424,0.00199366,0.00261884,0.00326756,0.00392921,0.00459466,0.00525614,0.00590706,0.00654196,0.0071563,0.00774642,0.00830938,0.0088429,0.00934527,0.00981523,0.010252,0.0106549,0.011024,0.0113591,0.0116604,0.0119283,0.0121633,0.0123658,0.0125364,0.0126757,0.0127844,0.0128629,0.0129119,0.0129319,0.0129235,0.0128871,0.0128231,0.0127319,0.0126139,0.0124694,0.0122987,0.0121019,0.0118794,0.0116312,0.0113576,0.0110589,0.010735,0.0103863,0.010013,0.00961536,0.0091936,0.0087481,0.00827924,0.00778749,0.00727336,0.00673746,0.00618047,0.00560318,0.00500644,0.00439124,0.00375864,0.00310983,0.00244608,0.00176881,0.00107951,0.000379808,-0.000328578,-0.00104382,-0.00176397,-0.00248702,-0.00321084,-0.00393322,-0.00465188,-0.00536447,-0.00606858,-0.00676173,-0.00744143,-0.00810515,-0.00875036,-0.0093745,-0.00997505,-0.0105495,-0.0110954,-0.0116104,-0.0120921,-0.0125382,-0.0129468,-0.0133157,-0.0136431,-0.0139273,-0.0141667,-0.0143599,-0.0145058,-0.0146034,-0.014652,-0.0146511,-0.0146003,-0.0144996,-0.0143494,-0.01415,-0.0139023,-0.0136074,-0.0132664,-0.0128812,-0.0124535,-0.0119856,-0.01148,-0.0109395,-0.0103671,-0.00976621,-0.00914057,-0.00849414,-0.00783123,-0.00715645,-0.00647476,-0.00579145,-0.00511214,-0.00444285,-0.00378996,-0.00316028,-0.00256105,-0.00199997,-0.00148525,-0.00102566,-0.000630554,-0.000309957,-7.46078e-05,6.39476e-05,9.32806e-05,-0
-0,0.000491595,0.00106338,0.00169775,0.002379,0.00309322,0.00382818,0.00457323,0.00531918,0.00605815,0.00678347,0.00748954,0.00817174,0.0088263,0.00945021,0.0100411,0.0105972,0.0111173,0.0116004,0.0120461,0.0124541,0.0128245,0.0131574,0.0134533,0.0137125,0.0139357,0.0141235,0.0142764,0.0143952,0.0144804,0.0145327,0.0145527,0.014541,0.0144979,0.014424,0.0143198,0.0141855,0.0140216,0.0138283,0.0136058,0.0133545,0.0130745,0.012766,0.0124293,0.0120646,0.011672,0.0112519,0.0108045,0.0103302,0.0098294,0.00930246,0.00874994,0.00817243,0.00757062,0.00694528,0.00629728,0.0056276,0.00493734,0.00422768,0.00349997,0.00275562,0.00199621,0.00122342,0.000439047,-0.000354985,-0.00115664,-0.00196376,-0.0027741,-0.00358529,-0.00439489,-0.00520035,-0.00599905,-0.00678832,-0.00756543,-0.00832758,-0.00907197,-0.00979578,-0.0104962,-0.0111704,-0.0118155,-0.012429,-0.013008,-0.0135501,-0.0140526,-0.0145133,-0.01493,-0.0153004,-0.0156227,-0.0158953,-0.0161164,-0.0162848,-0.0163995,-0.0164595,-0.0164644,-0.0164137,-0.0163074,-0.0161457,-0.0159293,-0.015659,-0.0153358,-0.0149613,-0.0145373,-0.0140658,-0.0135493,-0.0129905,-0.0123926,-0.0117589,-0.0110931,-0.0103994,-0.00968205,-0.0089459,-0.00819599,-0.00743775,-0.00667698,-0.00591981,-0.00517279,-0.00444285,-0.00373735,-0.00306406,-0.00243125,-0.00184766,-0.0013226,-0.000865911,-0.000488088,-0.000200289,-1.44095e-05,5.68636e-05,-0
-0,0.000602478,0.00128091,0.002018,0.00279824,0.00360787,0.00443472,0.00526818,0.00609905,0.00691941,0.00772254,0.00850281,0.00925552,0.00997685,0.0106637,0.0113138,0.0119253,0.0124968,0.0130275,0.0135168,0.0139647,0.014371,0.0147361,0.0150604,0.0153443,0.0155884,0.0157934,0.0159599,0.0160888,0.0161805,0.0162358,0.0162553,0.0162397,0.0161893,0.0161048,0.0159866,0.015835,0.0156506,0.0154334,0.0151839,0.0149024,0.0145889,0.0142439,0.0138675,0.0134599,0.0130215,0.0125525,0.0120532,0.011524,0.0109653,0.0103777,0.00976178,0.00911811,0.0084475,0.00775082,0.00702904,0.00628324,0.00551465,0.0047246,0.00391454,0.00308609,0.00224096,0.00138101,0.000508245,-0.000375216,-0.00126712,-0.0021651,-0.00306665,-0.00396918,-0.00486998,-0.00576625,-0.00665509,-0.00753356,-0.00839864,-0.00924725,-0.0100763,-0.0108827,-0.0116632,-0.0124149,-0.0131346,-0.0138192,-0.014466,-0.0150719,-0.0156342,-0.0161504,-0.0166179,-0.0170343,-0.0173977,-0.017706,-0.0179574,-0.0181507,-0.0182845,-0.0183578,-0.01837,-0.0183208,-0.01821,-0.0180379,-0.017805,-0.0175124,-0.0171611,-0.0167529,-0.0162897,-0.0157737,-0.0152077,-0.0145945,-0.0139377,-0.013241,-0.0125083,-0.0117443,-0.0109536,-0.0101416,-0.00931363,-0.00847571,-0.00763412,-0.00679553,-0.00596702,-0.00515605,-0.00437052,-0.00361878,-0.00290961,-0.00225231,-0.00165668,-0.00113304,-0.000692345,-0.000346128,-0.000106602,1.33199e-05,-0
-0,0.000723012,0.00151687,0.0023646,0.00325095,0.00416234,0.00508674,0.00601363,0.00693384,0.0078395,0.00872388,0.00958135,0.0104072,0.0111976,0.0119495,0.0126605,0.0133288,0.0139531,0.0145325,0.0150665,0.015555,0.015998,0.0163957,0.0167488,0.0170576,0.0173228,0.0175451,0.0177252,0.0178639,0.0179619,0.0180198,0.0180384,0.0180183,0.01796,0.0178641,0.0177311,0.0175613,0.0173552,0.0171131,0.0168353,0.0165221,0.0161738,0.0157906,0.0153727,0.0149206,0.0144343,0.0139143,0.013361,0.0127747,0.0121559,0.0115052,0.0108232,0.0101107,0.00936859,0.00859773,0.00779922,0.00697428,0.00612424,0.00525057,0.00435488,0.00343893,0.00250462,0.00155398,0.000589217,-0.000387349,-0.00137325,-0.00236587,-0.00336249,-0.00436024,-0.00535617,-0.00634721,-0.00733018,-0.00830185,-0.0092589,-0.010198,-0.0111157,-0.0120086,-0.0128733,-0.0137063,-0.0145043,-0.015264,-0.0159822,-0.0166556,-0.0172812,-0.0178562,-0.0183778,-0.0188435,-0.0192508,-0.0195976,-0.0198821,-0.0201026,-0.0202577,-0.0203464,-0.0203678,-0.0203216,-0.0202076,-0.0200261,-0.0197776,-0.0194632,-0.0190842,-0.0186423,-0.0181395,-0.0175785,-0.0169621,-0.0162935,-0.0155765,-0.014815,-0.0140136,-0.0131771,-0.0123106,-0.01142,-0.010511,-0.00959028,-0.00866448,-0.00774083,-0.00682695,-0.00593086,-0.005061,-0.00422625,-0.00343596,-0.00269993,-0.00202846,-0.00143236,-0.000922982,-0.000512245,-0.000212655,-3.73293e-05,-0
-0,0.000853014,0.00177093,0.00273713,0.00373665,0.00475613,0.00578372,0.00680905,0.00782304,0.00881791,0.00978699,0.0107247,0.0116263,0.0124881,0.013307,0.0140806,0.0148072,0.0154855,0.0161147,0.0166943,0.0172241,0.0177044,0.0181353,0.0185175,0.0188514,0.0191378,0.0193775,0.0195711,0.0197195,0.0198235,0.0198837,0.0199009,0.0198758,0.0198089,0.0197009,0.0195522,0.0193632,0.0191345,0.0188663,0.018559,0.0182129,0.0178282,0.0174053,0.0169445,0.016446,0.0159101,0.0153373,0.0147279,0.0140823,0.0134012,0.0126851,0.0119347,0.0111509,0.0103346,0.00948686,0.00860883,0.00770185,0.00676736,0.005807,0.0048225,0.0038158,0.00278896,0.00174421,0.000683941,-0.000389306,-0.00147284,-0.00256382,-0.00365928,-0.00475609,-0.00585104,-0.00694076,-0.00802182,-0.00909068,-0.0101437,-0.0111773,-0.0121877,-0.0131711,-0.0141239,-0.0150423,-0.0159227,-0.0167613,-0.0175546,-0.0182993,-0.0189919,-0.0196293,-0.0202084,-0.0207265,-0.0211809,-0.0215693,-0.0218896,-0.02214,-0.0223189,-0.022425,-0.0224577,-0.0224162,-0.0223005,-0.0221109,-0.0218478,-0.0215123,-0.0211059,-0.0206305,-0.0200881,-0.0194816,-0.0188141,-0.018089,-0.0173105,-0.0164827,-0.0156107,-0.0146995,-0.0137549,-0.0127829,-0.0117901,-0.0107832,-0.00976972,-0.00875728,-0.00775406,-0.00676863,-0.00580998,-0.00488754,-0.00401118,-0.00319124,-0.0024385,-0.00176424,-0.00118024,-0.000698752,-0.000332589,-9.50622e-05,-0
-0,0.000992301,0.00204278,0.00313517,0.00425484,0.00538868,0.00652509,0.00765385,0.00876606,0.00985405,0.0109113,0.0119322,0.0129122,0.0138477,0.0147355,0.0155735,0.0163599,0.0170934,0.0177734,0.0183994,0.0189714,0.0194894,0.019954,0.0203656,0.0207249,0.0210326,0.0212896,0.0214967,0.0216546,0.0217643,0.0218264,0.0218418,0.0218111,0.0217351,0.0216142,0.021449,0.02124,0.0209877,0.0206923,0.0203544,0.0199741,0.0195518,0.0190878,0.0185825,0.018036,0.0174488,0.0168213,0.0161539,0.0154472,0.0147016,0.0139179,0.0130969,0.0122394,0.0113465,0.0104193,0.00945904,0.00846724,0.00744546,0.00639544,0.0053191,0.0042185,0.00309591,0.00195373,0.000794556,-0.000378857,-0.00156359,-0.00275658,-0.00395458,-0.00515424,-0.00635204,-0.00754436,-0.00872745,-0.0098975,-0.0110506,-0.0121827,-0.0132898,-0.0143679,-0.0154129,-0.0164207,-0.0173874,-0.0183089,-0.0191814,-0.0200012,-0.0207645,-0.021468,-0.0221083,-0.0226823,-0.0231872,-0.0236204,-0.0239795,-0.0242625,-0.0244678,-0.0245939,-0.0246399,-0.0246052,-0.0244895,-0.0242931,-0.0240165,-0.0236609,-0.0232278,-0.022719,-0.022137,-0.0214848,-0.0207655,-0.0199831,-0.0191417,-0.0182462,-0.0173016,-0.0163137,-0.0152884,-0.0142324,-0.0131526,-0.0120564,-0.0109516,-0.00984656,-0.0087499,-0.00767077,-0.00661871,-0.00560371,-0.00463618,-0.00372697,-0.00288736,-0.00212909,-0.00146435,-0.000905768,-0.000466432,-0.000159864,-0