-0,-0.000876109,-0.00325046,-0.00612087,-0.0087041,-0.0104996,-0.0112112,-0.0106757,-0.00881516,-0.00560654,-0.00106298,0.00477853,0.0118653,0.0201344,0.0295166,0.0399392,0.0513278,0.0636081,0.0767063,0.0905505,0.105071,0.1202,0.135873,0.152028,0.168606,0.18555,0.202806,0.220324,0.238054,0.25595,0.273966,0.292061,0.310191,0.328318,0.346402,0.364406,0.382293,0.400025,0.417568,0.434885,0.451941,0.4687,0.485128,0.501189,0.516847,0.532067,0.546812,0.561047,0.574737,0.587844,0.600333,0.612167,0.623311,0.63373,0.643388,0.652251,0.660286,0.66746,0.673741,0.6791,0.683508,0.686939,0.689368,0.690773,0.691133,0.690433,0.688657,0.685795,0.681839,0.676785,0.670632,0.663385,0.655051,0.645642,0.635174,0.623669,0.61115,0.597649,0.583199,0.56784,0.551614,0.534571,0.516762,0.498244,0.479077,0.459326,0.439059,0.418347,0.397265,0.37589,0.3543,0.332579,0.310809,0.289074,0.267461,0.246053,0.224937,0.204198,0.18392,0.164184,0.145072,0.126662,0.109028,0.0922431,0.0763744,0.061486,0.0476368,0.0348806,0.0232652,0.0128325,0.00361712,-0.00435366,-0.011061,-0.0164954,-0.0206579,-0.0235615,-0.0252333,-0.0257169,-0.0250763,-0.0234003,-0.02081,-0.0174683,-0.0135942,-0.00948272,-0.00553077,-0.00225901,-0.000279394,-0
-0.000876109,-0.0014995,-0.00212214,-0.00281449,-0.00328725,-0.00323375,-0.00241606,-0.000671879,0.00209862,0.00594789,0.0108936,0.016928,0.0240256,0.0321478,0.0412471,0.0512701,0.0621595,0.0738557,0.0862983,0.0994266,0.113181,0.127502,0.142333,0.157618,0.173303,0.189337,0.20567,0.222253,0.23904,0.255986,0.27305,0.290189,0.307363,0.324533,0.341662,0.358711,0.375646,0.392429,0.409027,0.425404,0.441525,0.457356,0.472863,0.488012,0.502768,0.517098,0.530967,0.544341,0.557187,0.569471,0.581158,0.592216,0.602611,0.612311,0.621284,0.629499,0.636926,0.643534,0.649297,0.654188,0.658181,0.661253,0.663384,0.664553,0.664744,0.663944,0.66214,0.659323,0.65549,0.650636,0.644765,0.63788,0.62999,0.621107,0.611248,0.600433,0.588687,0.576037,0.562517,0.548162,0.533013,0.517115,0.500516,0.483267,0.465425,0.447048,0.428198,0.408941,0.389343,0.369475,0.349408,0.329217,0.308977,0.288763,0.268652,0.248722,0.22905,0.209711,0.19078,0.172333,0.15444,0.137172,0.120595,0.104774,0.0897681,0.0756343,0.062424,0.0501839,0.038955,0.0287724,0.0196643,0.0116516,0.0047471,-0.00104584,-0.00573401,-0.00933597,-0.0118838,-0.0134251,-0.0140264,-0.0137757,-0.0127878,-0.0112086,-0.00922044,-0.00704408,-0.0049298,-0.00311589,-0.00169795,-0.000279394
-0.00325311,-0.00212434,-0.000925342,0.000270425,0.00160076,0.00326477,0.00544903,0.00830192,0.01193,0.0164027,0.0217587,0.0280127,0.0351608,0.0431849,0.0520564,0.0617389,0.0721904,0.0833652,0.0952149,0.10769,0.120739,0.134312,0.14836,0.162831,0.177679,0.192856,0.208315,0.224012,0.239904,0.255948,0.272104,0.288331,0.304591,0.320847,0.33706,0.353196,0.369218,0.385093,0.400784,0.41626,0.431485,0.446426,0.461051,0.475327,0.489221,0.502699,0.515731,0.528284,0.540325,0.551824,0.562749,0.573068,0.582752,0.591771,0.600096,0.607698,0.614551,0.620627,0.625903,0.630355,0.633961,0.6367,0.638555,0.63951,0.63955,0.638664,0.636842,0.63408,0.630373,0.62572,0.620126,0.613594,0.606136,0.597763,0.588491,0.578341,0.567336,0.555502,0.54287,0.529475,0.515353,0.500547,0.485099,0.469058,0.452474,0.435402,0.417896,0.400017,0.381825,0.363383,0.344756,0.326011,0.307214,0.288435,0.269741,0.251203,0.232888,0.214864,0.1972,0.179961,0.16321,0.14701,0.13142,0.116496,0.102292,0.0888563,0.0762343,0.0644658,0.0535856,0.0436227,0.0345996,0.0265315,0.0194259,0.0132813,0.00808659,0.00381925,0.000444449,-0.00208693,-0.00384007,-0.00489829,-0.0053649,-0.00536416,-0.00503969,-0.0045467,-0.00403065,-0.00357809,-0.00311772,-0.00225453
-0.00613629,-0.00282061,0.000273522,0.00321963,0.00615403,0.00924213,0.0126449,0.0165004,0.0209174,0.0259754,0.031728,0.0382065,0.0454243,0.05338,0.0620612,0.0714462,0.0815068,0.0922095,0.103517,0.11539,0.127786,0.140662,0.153976,0.167684,0.181742,0.196109,0.210741,0.225597,0.240637,0.255821,0.27111,0.286466,0.301852,0.317231,0.332568,0.347828,0.362975,0.377977,0.3928,0.40741,0.421776,0.435865,0.449645,0.463085,0.476153,0.488818,0.50105,0.512818,0.524092,0.534844,0.545043,0.554661,0.56367,0.572044,0.579756,0.58678,0.593092,0.598669,0.603489,0.607532,0.610778,0.613211,0.614814,0.615575,0.615482,0.614526,0.612701,0.610002,0.606427,0.601978,0.596659,0.590476,0.583439,0.575562,0.56686,0.557352,0.54706,0.536011,0.524233,0.511756,0.498617,0.484852,0.470503,0.455613,0.440227,0.424394,0.408166,0.391594,0.374735,0.357644,0.340379,0.323001,0.305569,0.288143,0.270787,0.253559,0.236523,0.219737,0.203263,0.187157,0.171476,0.156276,0.141608,0.127521,0.114063,0.101275,0.0891953,0.0778591,0.067295,0.0575263,0.0485705,0.0404379,0.0331317,0.0266464,0.0209674,0.0160701,0.0119181,0.00846293,0.00564234,0.00337976,0.00158408,0.000151138,-0.0010318,-0.00207587,-0.00307074,-0.00405015,-0.00494162,-0.00551654
-0.00874779,-0.00329715,0.00161932,0.00618016,0.010554,0.014906,0.0193901,0.0241404,0.0292679,0.034859,0.040978,0.0476688,0.0549583,0.0628592,0.0713723,0.0804887,0.0901922,0.10046,0.111266,0.122578,0.134363,0.146585,0.159209,0.172195,0.185506,0.199104,0.212949,0.227004,0.241232,0.255594,0.270054,0.284576,0.299124,0.313663,0.328159,0.342577,0.356885,0.371049,0.385038,0.398818,0.41236,0.425631,0.438601,0.45124,0.463517,0.475404,0.486872,0.497891,0.508434,0.518474,0.527983,0.536935,0.545306,0.553069,0.560202,0.566682,0.572486,0.577596,0.581991,0.585654,0.588568,0.590719,0.592095,0.592684,0.592478,0.591469,0.589653,0.587028,0.583594,0.579352,0.574309,0.568472,0.56185,0.554457,0.546309,0.537424,0.527824,0.517531,0.506574,0.49498,0.482783,0.470016,0.456717,0.442925,0.428681,0.41403,0.399016,0.383687,0.368093,0.352283,0.33631,0.320226,0.304084,0.287938,0.271844,0.255853,0.240022,0.224402,0.209046,0.194005,0.179329,0.165066,0.151261,0.137956,0.125192,0.113005,0.101428,0.0904896,0.0802133,0.0706177,0.0617156,0.0535134,0.0460102,0.0391977,0.033059,0.0275676,0.0226874,0.0183712,0.0145604,0.0111852,0.00816529,0.00541201,0.00283329,0.000342209,-0.00212949,-0.004613,-0.00708439,-0.00946303
-0.0105864,-0.00324199,0.00331969,0.00932803,0.0149774,0.0204411,0.0258736,0.0314096,0.0371624,0.0432241,0.0496667,0.056544,0.0638937,0.0717396,0.0800938,0.0889581,0.0983267,0.108187,0.11852,0.129304,0.140512,0.152116,0.164084,0.176385,0.188985,0.20185,0.214945,0.228234,0.241684,0.255259,0.268924,0.282645,0.296389,0.310121,0.323809,0.337419,0.35092,0.364279,0.377466,0.390449,0.403199,0.415685,0.427878,0.439749,0.45127,0.462413,0.47315,0.483455,0.493301,0.502663,0.511517,0.519838,0.527603,0.53479,0.541377,0.547345,0.552674,0.557347,0.561347,0.564659,0.567269,0.569165,0.570337,0.570776,0.570476,0.569432,0.567641,0.565102,0.561816,0.557788,0.553023,0.54753,0.541319,0.534402,0.526796,0.518518,0.509587,0.500027,0.489862,0.47912,0.467828,0.456019,0.443726,0.430985,0.417832,0.404307,0.390451,0.376306,0.361915,0.347322,0.332574,0.317717,0.302798,0.287864,0.272962,0.258141,0.243446,0.228925,0.214623,0.200585,0.186853,0.173469,0.160472,0.147899,0.135784,0.124157,0.113047,0.102476,0.0924635,0.0830237,0.0741653,0.0658911,0.0581973,0.0510731,0.0444998,0.0384504,0.0328889,0.02777,0.0230389,0.0186317,0.0144764,0.0104949,0.00660728,0.00273732,-0.00118014,-0.00519176,-0.00932356,-0.0135936
-0.0113477,-0.00240722,0.0055724,0.0128359,0.0195895,0.0260123,0.0322608,0.0384711,0.044759,0.0512208,0.0579349,0.0649624,0.0723495,0.080129,0.0883222,0.0969403,0.105986,0.115455,0.125337,0.135616,0.146274,0.157287,0.16863,0.180276,0.192196,0.204359,0.216734,0.229289,0.241992,0.25481,0.267712,0.280663,0.293633,0.306588,0.319498,0.33233,0.345054,0.357639,0.370055,0.382272,0.394261,0.405993,0.417441,0.428576,0.439372,0.449802,0.459841,0.469464,0.478646,0.487364,0.495595,0.503317,0.51051,0.517153,0.523227,0.528715,0.5336,0.537867,0.541501,0.54449,0.546823,0.548489,0.549481,0.549793,0.549419,0.548357,0.546606,0.544165,0.541039,0.537231,0.532749,0.5276,0.521796,0.51535,0.508275,0.50059,0.492313,0.483464,0.474066,0.464145,0.453727,0.442839,0.431513,0.41978,0.407672,0.395225,0.382475,0.369458,0.356214,0.34278,0.329197,0.315505,0.301746,0.28796,0.274189,0.260473,0.246854,0.233371,0.220063,0.20697,0.194127,0.181571,0.169333,0.157446,0.145939,0.134836,0.12416,0.11393,0.104161,0.0948632,0.0860415,0.0776957,0.0698195,0.0624002,0.0554179,0.0488454,0.0426472,0.03678,0.0311924,0.0258249,0.0206116,0.0154814,0.0103607,0.00517635,-0.00014086,-0.00565517,-0.0114297,-0.0175401
-0.0108524,-0.000615246,0.00854037,0.0168555,0.0245369,0.0317646,0.0386956,0.0454668,0.0521956,0.0589816,0.0659075,0.0730404,0.080433,0.0881254,0.0961464,0.104515,0.113241,0.122327,0.131771,0.141563,0.151689,0.162133,0.172874,0.183889,0.195154,0.206641,0.218323,0.230171,0.242155,0.254245,0.26641,0.278619,0.290843,0.30305,0.315209,0.327292,0.339267,0.351106,0.362779,0.374258,0.385516,0.396524,0.407255,0.417685,0.427786,0.437535,0.446907,0.455878,0.464427,0.472532,0.480172,0.487327,0.493979,0.500109,0.505702,0.51074,0.515211,0.519101,0.522398,0.525092,0.527174,0.528636,0.529472,0.529678,0.52925,0.528189,0.526492,0.524164,0.521208,0.517628,0.513433,0.508631,0.503234,0.497253,0.490702,0.483599,0.475959,0.467803,0.459152,0.450027,0.440453,0.430455,0.42006,0.409295,0.398191,0.386777,0.375086,0.363148,0.350998,0.33867,0.326197,0.313615,0.300959,0.288264,0.275565,0.262898,0.250297,0.237797,0.22543,0.213229,0.201226,0.189449,0.177927,0.166686,0.155749,0.145137,0.134869,0.124958,0.115415,0.106248,0.0974587,0.0890437,0.0809948,0.0732978,0.0659321,0.0588702,0.0520776,0.0455128,0.039127,0.0328644,0.0266635,0.0204573,0.0141753,0.0077447,0.00109076,-0.00586431,-0.0132067,-0.0210422
-0.00899905,0.00225439,0.0123484,0.0215114,0.0299439,0.0378224,0.0453022,0.0525194,0.0595921,0.066622,0.0736947,0.0808816,0.0882407,0.0958176,0.103647,0.111755,0.120157,0.128862,0.137873,0.147187,0.156795,0.166686,0.176842,0.187247,0.197877,0.208711,0.219723,0.230886,0.242175,0.25356,0.265013,0.276506,0.288008,0.299491,0.310927,0.322285,0.333538,0.344657,0.355615,0.366383,0.376936,0.387247,0.397291,0.407042,0.416478,0.425574,0.434308,0.442658,0.450604,0.458126,0.465206,0.471824,0.477965,0.483612,0.488752,0.493371,0.497457,0.500999,0.503987,0.506412,0.508269,0.509551,0.510254,0.510376,0.509915,0.508871,0.507247,0.505045,0.502269,0.498927,0.495025,0.490574,0.485583,0.480064,0.474032,0.467501,0.460487,0.453008,0.445083,0.436733,0.427977,0.41884,0.409344,0.399514,0.389376,0.378955,0.36828,0.357377,0.346275,0.335004,0.323591,0.312068,0.300463,0.288807,0.277129,0.265459,0.253825,0.242257,0.230782,0.219427,0.208218,0.197179,0.186333,0.175702,0.165303,0.155154,0.145269,0.135658,0.126328,0.117284,0.108524,0.100044,0.0918334,0.0838766,0.0761525,0.0686339,0.0612871,0.0540721,0.0469423,0.0398452,0.032722,0.0255089,0.0181369,0.0105329,0.00261827,-0.00569309,-0.0144994,-0.0239189
-0.00573472,0.00627967,0.0170876,0.0269017,0.0359124,0.0442899,0.0521858,0.059734,0.0670522,0.0742425,0.0813929,0.0885776,0.0958583,0.103285,0.110898,0.118727,0.126794,0.135113,0.143692,0.152531,0.161629,0.170976,0.180561,0.190369,0.200382,0.21058,0.22094,0.23144,0.242053,0.252755,0.263518,0.274316,0.28512,0.295903,0.306637,0.317295,0.32785,0.338273,0.34854,0.358623,0.368497,0.378137,0.387519,0.39662,0.405416,0.413887,0.422011,0.429768,0.43714,0.444107,0.450654,0.456765,0.462424,0.467618,0.472334,0.476562,0.48029,0.483511,0.486217,0.4884,0.490057,0.491183,0.491776,0.491835,0.49136,0.490353,0.488816,0.486753,0.484171,0.481075,0.477474,0.473376,0.468793,0.463736,0.458218,0.452252,0.445854,0.439039,0.431825,0.424229,0.41627,0.407968,0.399344,0.390417,0.381211,0.371748,0.362051,0.352143,0.342047,0.331789,0.321393,0.310882,0.300283,0.289619,0.278915,0.268195,0.257483,0.246802,0.236175,0.225624,0.215169,0.20483,0.194626,0.184572,0.174684,0.164973,0.155451,0.146124,0.136996,0.128069,0.119339,0.110799,0.102438,0.0942396,0.0861819,0.078238,0.070375,0.0625546,0.054732,0.0468572,0.0388739,0.0307205,0.0223298,0.0136286,0.00453685,-0.00503501,-0.0151893,-0.0260463
-0.00103721,0.0115081,0.0228221,0.033101,0.0425237,0.0512529,0.0594346,0.0671997,0.0746642,0.0819301,0.0890861,0.0962085,0.103362,0.110599,0.117964,0.125492,0.133207,0.141129,0.14927,0.157635,0.166224,0.175033,0.184055,0.193277,0.202685,0.212261,0.221985,0.231837,0.241793,0.25183,0.261922,0.272044,0.28217,0.292273,0.302328,0.312307,0.322186,0.331936,0.341535,0.350955,0.360174,0.369168,0.377913,0.386388,0.394571,0.402443,0.409983,0.417173,0.423997,0.430438,0.43648,0.44211,0.447315,0.452083,0.456403,0.460266,0.463665,0.466591,0.46904,0.471006,0.472487,0.473481,0.473986,0.474003,0.473533,0.472579,0.471146,0.469237,0.46686,0.46402,0.460727,0.456989,0.452817,0.448221,0.443214,0.437808,0.432017,0.425856,0.419338,0.41248,0.405299,0.39781,0.390032,0.381983,0.37368,0.365143,0.35639,0.34744,0.338314,0.329031,0.319611,0.310073,0.300438,0.290724,0.280952,0.271142,0.26131,0.251477,0.24166,0.231875,0.22214,0.212468,0.202875,0.193371,0.183969,0.174676,0.165499,0.156443,0.147509,0.138695,0.129996,0.121404,0.112905,0.104483,0.0961161,0.0877771,0.0794344,0.0710509,0.0625838,0.0539851,0.045201,0.0361721,0.0268332,0.0171121,0.00692958,-0.00380355,-0.0151884,-0.0273414
0.00509622,0.0179658,0.0295948,0.0401641,0.0498412,0.05878,0.067121,0.0749908,0.0825031,0.0897589,0.0968468,0.103844,0.110817,0.117822,0.124905,0.132103,0.139446,0.146956,0.154648,0.162532,0.170611,0.178885,0.187347,0.19599,0.204802,0.213766,0.222867,0.232084,0.241398,0.250785,0.260223,0.269687,0.279152,0.288595,0.297989,0.307309,0.316531,0.32563,0.334581,0.343362,0.351948,0.360317,0.368449,0.376321,0.383915,0.391212,0.398193,0.404842,0.411143,0.417083,0.422646,0.427822,0.432598,0.436966,0.440916,0.444441,0.447535,0.450192,0.452409,0.454182,0.455511,0.456394,0.456832,0.456827,0.456382,0.455499,0.454185,0.452445,0.450284,0.447711,0.444734,0.441362,0.437604,0.433471,0.428973,0.424124,0.418934,0.413416,0.407584,0.40145,0.39503,0.388336,0.381383,0.374187,0.366762,0.359122,0.351285,0.343263,0.335074,0.326732,0.318253,0.309652,0.300944,0.292145,0.283269,0.274331,0.265344,0.256324,0.247282,0.238232,0.229186,0.220153,0.211144,0.202168,0.193231,0.184338,0.175494,0.166699,0.157952,0.14925,0.140585,0.131948,0.123325,0.114698,0.106045,0.0973397,0.088552,0.0796456,0.0705797,0.0613083,0.0517802,0.0419382,0.0317196,0.0210548,0.0098668,-0.00193026,-0.014433,-0.0277505
0.012656,0.0256635,0.0374326,0.0481301,0.0579126,0.0669258,0.0753039,0.083169,0.0906319,0.0977919,0.104737,0.111545,0.118283,0.125009,0.131771,0.138609,0.145554,0.152633,0.159863,0.167257,0.17482,0.182555,0.19046,0.198527,0.206747,0.215108,0.223594,0.232188,0.240871,0.249622,0.258419,0.26724,0.276061,0.284859,0.293609,0.302288,0.310873,0.319338,0.327662,0.335822,0.343796,0.351563,0.359102,0.366394,0.373421,0.380166,0.386611,0.392742,0.398546,0.404008,0.409117,0.413863,0.418236,0.422229,0.425833,0.429045,0.431858,0.43427,0.436278,0.437881,0.439079,0.439874,0.440265,0.440258,0.439855,0.439061,0.437881,0.436322,0.434391,0.432095,0.429442,0.426441,0.423102,0.419434,0.415447,0.411151,0.406557,0.401677,0.396521,0.3911,0.385427,0.379512,0.373367,0.367003,0.360434,0.353669,0.346721,0.3396,0.33232,0.324889,0.317321,0.309626,0.301815,0.293898,0.285887,0.27779,0.269618,0.26138,0.253086,0.244743,0.236359,0.227941,0.219495,0.211026,0.202537,0.194031,0.185508,0.176967,0.168404,0.159814,0.151188,0.142516,0.133781,0.124967,0.116051,0.107008,0.0978087,0.0884176,0.0787962,0.0689007,0.0586823,0.0480867,0.0370542,0.0255187,0.013407,0.000638112,-0.0128779,-0.027241
0.0216246,0.0346017,0.0463503,0.0570253,0.0667734,0.0757323,0.08403,0.0917843,0.0991026,0.106082,0.11281,0.119363,0.12581,0.132208,0.138608,0.145051,0.151572,0.158197,0.164948,0.171838,0.178876,0.186068,0.193411,0.200903,0.208535,0.216297,0.224175,0.232154,0.240215,0.248341,0.256509,0.2647,0.27289,0.281058,0.28918,0.297235,0.305198,0.313048,0.320762,0.32832,0.335701,0.342884,0.349851,0.356583,0.363064,0.369278,0.375209,0.380845,0.386172,0.39118,0.395858,0.400197,0.40419,0.407831,0.411113,0.414034,0.41659,0.418779,0.420601,0.422056,0.423145,0.42387,0.424235,0.424244,0.423901,0.423211,0.422181,0.420817,0.419127,0.417118,0.414798,0.412176,0.409261,0.40606,0.402584,0.398841,0.394841,0.390593,0.386106,0.381389,0.376452,0.371302,0.36595,0.360403,0.354671,0.34876,0.34268,0.336438,0.330042,0.323499,0.316817,0.310002,0.30306,0.295999,0.288825,0.281543,0.27416,0.26668,0.259108,0.251449,0.243706,0.235883,0.227982,0.220005,0.211951,0.203821,0.195611,0.18732,0.17894,0.170464,0.161883,0.153185,0.144353,0.13537,0.126214,0.11686,0.10728,0.0974406,0.0873045,0.0768305,0.0659726,0.0546795,0.0428951,0.0305574,0.0175982,0.00394249,-0.010492,-0.0257953
0.0319801,0.0447733,0.0563539,0.0668663,0.0764485,0.0852311,0.0933362,0.100877,0.107958,0.114674,0.12111,0.127343,0.13344,0.139461,0.145456,0.151468,0.157534,0.163681,0.169931,0.176302,0.182804,0.189443,0.196221,0.203135,0.210179,0.217344,0.224618,0.231987,0.239435,0.246943,0.254493,0.262064,0.269636,0.277186,0.284694,0.292137,0.299495,0.306744,0.313866,0.320838,0.327643,0.33426,0.340673,0.346865,0.35282,0.358522,0.36396,0.369121,0.373993,0.378567,0.382835,0.38679,0.390425,0.393735,0.396717,0.399369,0.401689,0.403677,0.405333,0.40666,0.40766,0.408336,0.408692,0.408734,0.408467,0.407897,0.407031,0.405876,0.404438,0.402727,0.400749,0.398513,0.396027,0.393298,0.390335,0.387145,0.383737,0.380118,0.376294,0.372274,0.368064,0.36367,0.359098,0.354355,0.349444,0.344372,0.339143,0.333761,0.32823,0.322554,0.316736,0.310779,0.304685,0.298458,0.2921,0.285611,0.278995,0.272252,0.265384,0.25839,0.251272,0.244028,0.236658,0.22916,0.221531,0.213769,0.205869,0.197824,0.189628,0.181271,0.172742,0.164028,0.155114,0.14598,0.136606,0.126968,0.117037,0.106783,0.0961707,0.085161,0.0737108,0.0617724,0.0492936,0.036217,0.0224799,0.00801409,-0.00725465,-0.0234062
0.0436976,0.0561664,0.0674426,0.0776619,0.0869548,0.0954454,0.103251,0.110479,0.117232,0.123602,0.129673,0.13552,0.14121,0.146803,0.152349,0.157892,0.16347,0.169111,0.174839,0.180673,0.186624,0.192701,0.198905,0.205236,0.21169,0.218258,0.22493,0.231693,0.238532,0.24543,0.252369,0.25933,0.266292,0.273237,0.280142,0.286987,0.293752,0.300415,0.306958,0.313361,0.319605,0.325674,0.33155,0.337218,0.342664,0.347874,0.352836,0.357541,0.361978,0.366138,0.370016,0.373606,0.376902,0.379903,0.382605,0.385008,0.387112,0.388918,0.390428,0.391646,0.392575,0.393219,0.393585,0.393677,0.393502,0.393066,0.392378,0.391443,0.39027,0.388866,0.387239,0.385396,0.383345,0.381092,0.378645,0.37601,0.373193,0.370201,0.367038,0.36371,0.360221,0.356575,0.352775,0.348824,0.344724,0.340477,0.336085,0.331548,0.326867,0.322041,0.317071,0.311955,0.306692,0.301282,0.295722,0.29001,0.284145,0.278123,0.271943,0.2656,0.259093,0.252417,0.245568,0.238542,0.231332,0.223934,0.216341,0.208544,0.200534,0.192301,0.183833,0.175116,0.166133,0.156867,0.147296,0.137398,0.127145,0.116509,0.105456,0.0939502,0.0819515,0.0694159,0.0562952,0.0425371,0.0280847,0.0128767,-0.0031527,-0.0200736
0.0567508,0.0687655,0.0796107,0.089415,0.0983023,0.106391,0.113794,0.120615,0.126953,0.132898,0.13853,0.143926,0.149151,0.154264,0.159316,0.164351,0.169406,0.174513,0.179695,0.184971,0.190355,0.195856,0.201477,0.207219,0.213078,0.219047,0.225117,0.231276,0.237509,0.243802,0.250136,0.256494,0.262856,0.269204,0.275517,0.281775,0.287958,0.294048,0.300025,0.305872,0.311571,0.317105,0.322459,0.32762,0.332573,0.337307,0.341812,0.346078,0.350097,0.353862,0.357368,0.360611,0.363588,0.366297,0.368737,0.37091,0.372816,0.374459,0.375841,0.376968,0.377843,0.378472,0.378862,0.37902,0.378951,0.378664,0.378166,0.377464,0.376566,0.37548,0.374212,0.372769,0.371159,0.369387,0.367459,0.365381,0.363157,0.360792,0.358288,0.35565,0.352878,0.349974,0.346939,0.343773,0.340475,0.337044,0.333479,0.329776,0.325933,0.321946,0.317811,0.313524,0.309079,0.304473,0.299699,0.294751,0.289625,0.284314,0.278811,0.27311,0.267206,0.26109,0.254756,0.248196,0.241403,0.234368,0.227083,0.219536,0.211718,0.203617,0.19522,0.186511,0.177476,0.168095,0.158348,0.148214,0.137666,0.126677,0.115217,0.103252,0.090745,0.0776556,0.0639403,0.0495519,0.0344394,0.0185486,0.00182182,-0.0158016
0.0711128,0.082553,0.0928491,0.102124,0.110496,0.118079,0.124981,0.131303,0.137141,0.142582,0.147707,0.152587,0.157288,0.16187,0.166382,0.170868,0.175367,0.179908,0.184518,0.189215,0.194014,0.198925,0.203951,0.209095,0.214352,0.219719,0.225185,0.230739,0.236369,0.242059,0.247794,0.253554,0.259323,0.265081,0.27081,0.276491,0.282103,0.287631,0.293054,0.298357,0.303523,0.308536,0.313383,0.31805,0.322525,0.326799,0.330861,0.334704,0.338321,0.341707,0.344858,0.347771,0.350445,0.352879,0.355075,0.357034,0.35876,0.360256,0.361526,0.362577,0.363414,0.364043,0.364473,0.36471,0.364761,0.364635,0.364339,0.363881,0.363269,0.362509,0.361608,0.360573,0.35941,0.358125,0.356721,0.355203,0.353574,0.351836,0.349992,0.348041,0.345984,0.34382,0.341546,0.339161,0.33666,0.334039,0.331294,0.328419,0.325406,0.32225,0.318942,0.315475,0.311841,0.30803,0.304034,0.299843,0.295449,0.290841,0.28601,0.280946,0.27564,0.270081,0.26426,0.258166,0.25179,0.24512,0.238146,0.230855,0.223236,0.215276,0.206961,0.198275,0.189202,0.179724,0.169823,0.159475,0.148657,0.137344,0.125508,0.113117,0.100137,0.0865332,0.0722654,0.0572917,0.0415672,0.0250444,0.00767354,-0.0105971
0.0867569,0.0975099,0.107146,0.115783,0.123536,0.130514,0.136821,0.142557,0.147813,0.152675,0.157221,0.161522,0.165643,0.169641,0.173567,0.177464,0.181369,0.185315,0.189325,0.19342,0.197615,0.201919,0.206337,0.210872,0.215522,0.22028,0.225138,0.230087,0.235113,0.240203,0.24534,0.250507,0.255688,0.260863,0.266015,0.271126,0.276177,0.281151,0.286031,0.290801,0.295445,0.299949,0.3043,0.308486,0.312497,0.316324,0.319957,0.323391,0.326621,0.329642,0.332453,0.335051,0.337437,0.339612,0.341579,0.343339,0.344899,0.346263,0.347436,0.348425,0.349238,0.349882,0.350364,0.350693,0.350876,0.350923,0.35084,0.350636,0.350318,0.349893,0.349368,0.348748,0.348039,0.347245,0.34637,0.345415,0.344384,0.343277,0.342093,0.340831,0.339489,0.338063,0.33655,0.334943,0.333237,0.331424,0.329496,0.327444,0.325259,0.322929,0.320445,0.317795,0.314967,0.311948,0.308726,0.305289,0.301624,0.297717,0.293556,0.289129,0.284421,0.27942,0.274114,0.268489,0.262533,0.256234,0.249577,0.242551,0.23514,0.227332,0.219111,0.210462,0.201368,0.191812,0.181775,0.171236,0.160173,0.148562,0.136377,0.12359,0.110171,0.0960872,0.0813037,0.0657838,0.0494882,0.0323762,0.0144053,-0.00446757
0.103656,0.113616,0.122487,0.130385,0.137419,0.143697,0.149321,0.154385,0.15898,0.163189,0.167089,0.170749,0.174232,0.177596,0.180889,0.184155,0.187431,0.190748,0.194131,0.1976,0.201169,0.204849,0.208646,0.212561,0.216592,0.220735,0.224981,0.229321,0.233743,0.238232,0.242773,0.24735,0.251946,0.256544,0.261125,0.265673,0.270169,0.274598,0.278943,0.283188,0.28732,0.291326,0.295192,0.298909,0.302467,0.305858,0.309075,0.312113,0.314968,0.317638,0.320121,0.322417,0.324529,0.326458,0.328208,0.329783,0.33119,0.332435,0.333523,0.334464,0.335265,0.335934,0.336481,0.336913,0.337239,0.337468,0.337608,0.337667,0.337653,0.337571,0.337429,0.337231,0.336982,0.336685,0.336343,0.335957,0.335527,0.335053,0.334533,0.333962,0.333337,0.332652,0.3319,0.331073,0.330162,0.329156,0.328046,0.326818,0.325459,0.323957,0.322297,0.320464,0.318442,0.316216,0.31377,0.311089,0.308154,0.304952,0.301464,0.297675,0.29357,0.289132,0.284347,0.279198,0.27367,0.267749,0.26142,0.254668,0.247478,0.239834,0.231722,0.223126,0.214028,0.204412,0.194259,0.18355,0.172264,0.160379,0.147872,0.134716,0.120886,0.106353,0.091086,0.075053,0.0582207,0.0405546,0.0220194,0.00257957
0.121785,0.130851,0.138858,0.145919,0.152141,0.157629,0.162482,0.166793,0.17065,0.174135,0.177321,0.180279,0.183069,0.185747,0.188362,0.190956,0.193565,0.196221,0.198948,0.201765,0.204688,0.207726,0.210885,0.214167,0.21757,0.221089,0.224717,0.228444,0.232258,0.236145,0.240091,0.244079,0.248093,0.252116,0.256131,0.260121,0.264069,0.267959,0.271776,0.275506,0.279134,0.282649,0.28604,0.289297,0.292412,0.295378,0.298189,0.300841,0.303332,0.305661,0.307828,0.309834,0.311683,0.313377,0.314922,0.316324,0.317589,0.318725,0.319741,0.320643,0.321443,0.322148,0.322768,0.323313,0.323791,0.324212,0.324583,0.324914,0.32521,0.325479,0.325726,0.325956,0.326173,0.326379,0.326575,0.326762,0.326939,0.327103,0.327249,0.327374,0.327469,0.327528,0.327541,0.327496,0.327384,0.32719,0.3269,0.3265,0.325973,0.325302,0.324469,0.323458,0.322248,0.32082,0.319156,0.317235,0.315039,0.312547,0.30974,0.306599,0.303105,0.29924,0.294984,0.290321,0.285233,0.279703,0.273714,0.267249,0.260293,0.25283,0.244842,0.236315,0.227231,0.217573,0.207324,0.196465,0.184978,0.172842,0.160035,0.146537,0.132321,0.117365,0.101641,0.085123,0.0677822,0.0495902,0.0305183,0.0105384
0.141118,0.149195,0.156243,0.162373,0.167693,0.172304,0.176303,0.179782,0.182827,0.185517,0.187927,0.190122,0.192163,0.194106,0.195996,0.197877,0.199783,0.201744,0.203786,0.205926,0.20818,0.210556,0.213061,0.215696,0.218459,0.221346,0.224348,0.227457,0.230659,0.233942,0.237291,0.240691,0.244124,0.247575,0.251026,0.254462,0.257866,0.261223,0.264518,0.267738,0.27087,0.273902,0.276825,0.27963,0.28231,0.284858,0.287272,0.289548,0.291685,0.293682,0.295542,0.297267,0.298862,0.300331,0.30168,0.302917,0.30405,0.305088,0.306038,0.306912,0.307718,0.308468,0.30917,0.309835,0.310473,0.311092,0.311702,0.31231,0.312924,0.313549,0.314192,0.314856,0.315544,0.316258,0.316998,0.317763,0.318551,0.319357,0.320176,0.321001,0.321822,0.32263,0.323413,0.324158,0.32485,0.325474,0.326012,0.326446,0.326757,0.326925,0.32693,0.326748,0.326359,0.32574,0.324868,0.323719,0.322272,0.320502,0.318388,0.315908,0.313038,0.309758,0.306047,0.301884,0.29725,0.292126,0.286492,0.280332,0.273627,0.26636,0.258515,0.250075,0.241023,0.231342,0.221016,0.210028,0.19836,0.185994,0.17291,0.15909,0.144512,0.129155,0.112998,0.0960168,0.0781899,0.0594937,0.0399059,0.0194048
0.161631,0.168626,0.174624,0.179736,0.184066,0.187716,0.190781,0.193352,0.195513,0.197342,0.19891,0.200284,0.201523,0.20268,0.203801,0.204927,0.206092,0.207326,0.208653,0.21009,0.211651,0.213346,0.21518,0.217153,0.219264,0.221508,0.223876,0.22636,0.228946,0.231621,0.234371,0.237181,0.240033,0.242913,0.245803,0.248687,0.251551,0.254378,0.257156,0.259871,0.262511,0.265066,0.267527,0.269886,0.272137,0.274276,0.2763,0.278206,0.279995,0.281669,0.283229,0.284681,0.286029,0.287279,0.288441,0.28952,0.290528,0.291473,0.292366,0.293217,0.294037,0.294837,0.295627,0.296419,0.297222,0.298046,0.298899,0.29979,0.300726,0.301713,0.302756,0.303859,0.305023,0.30625,0.30754,0.308888,0.310293,0.311747,0.313244,0.314775,0.316329,0.317894,0.319454,0.320996,0.322502,0.323952,0.325328,0.326607,0.327768,0.328787,0.32964,0.330302,0.330748,0.330951,0.330885,0.330524,0.329841,0.328811,0.327407,0.325603,0.323376,0.320699,0.317551,0.313907,0.309746,0.305046,0.299787,0.29395,0.287515,0.280465,0.272781,0.264447,0.255447,0.245764,0.235381,0.224284,0.212455,0.199878,0.186537,0.172414,0.157493,0.141755,0.125183,0.107757,0.0894615,0.0702772,0.0501877,0.0291777
0.183298,0.189124,0.193985,0.197992,0.201249,0.203858,0.205912,0.207501,0.208707,0.209608,0.210275,0.21077,0.211153,0.211475,0.211782,0.212112,0.2125,0.212974,0.213555,0.214263,0.215109,0.216102,0.217246,0.218542,0.219988,0.221577,0.223302,0.225153,0.227117,0.22918,0.231328,0.233545,0.235816,0.238124,0.240453,0.242787,0.245112,0.247413,0.249676,0.251889,0.254041,0.256123,0.258127,0.260045,0.261873,0.263607,0.265245,0.266787,0.268234,0.269588,0.270855,0.272038,0.273145,0.274183,0.275161,0.276088,0.276975,0.277833,0.278672,0.279505,0.280343,0.281198,0.28208,0.283002,0.283974,0.285006,0.286107,0.287285,0.288547,0.289899,0.291346,0.292892,0.294537,0.296282,0.298124,0.300062,0.302088,0.304197,0.306379,0.308624,0.310918,0.313248,0.315596,0.317945,0.320275,0.322564,0.32479,0.326928,0.328953,0.330839,0.332557,0.33408,0.335378,0.336422,0.337182,0.337629,0.337731,0.337461,0.336788,0.335684,0.334121,0.33207,0.329507,0.326404,0.322739,0.318486,0.313625,0.308133,0.30199,0.295178,0.287678,0.279472,0.270545,0.260879,0.25046,0.239273,0.227302,0.214534,0.200953,0.186546,0.171299,0.155196,0.138224,0.120368,0.101616,0.0819542,0.0613718,0.0398588
0.206096,0.210667,0.214307,0.217127,0.219231,0.22072,0.221688,0.222223,0.222408,0.222317,0.222021,0.221582,0.221057,0.220496,0.219944,0.219439,0.219012,0.218692,0.218499,0.21845,0.218556,0.218826,0.219262,0.219865,0.220632,0.221555,0.222627,0.223836,0.22517,0.226616,0.228158,0.22978,0.231466,0.233201,0.234969,0.236753,0.23854,0.240314,0.242064,0.243778,0.245445,0.247057,0.248605,0.250085,0.251493,0.252825,0.254081,0.255262,0.25637,0.257409,0.258384,0.259302,0.260171,0.260999,0.261797,0.262574,0.263344,0.264116,0.264905,0.265722,0.26658,0.267491,0.268468,0.269522,0.270665,0.271906,0.273256,0.274722,0.276313,0.278033,0.279887,0.281878,0.284007,0.286273,0.288673,0.291204,0.293859,0.296629,0.299503,0.30247,0.305513,0.308618,0.311765,0.314933,0.318101,0.321243,0.324335,0.327349,0.330257,0.333028,0.335632,0.338036,0.340209,0.342117,0.343727,0.345006,0.34592,0.346436,0.34652,0.346142,0.34527,0.343873,0.341921,0.339388,0.336244,0.332466,0.328028,0.322907,0.317082,0.310533,0.30324,0.295186,0.286353,0.276727,0.266292,0.255035,0.242942,0.23,0.216198,0.201523,0.185963,0.169509,0.152149,0.133873,0.114673,0.0945405,0.0734688,0.0514535