0,0,0,0,0,0,0,0,0,0,0,0,0,0,0,0,0,0,0,0,0,0,0,0,0,0,0,0,0,0,0,0,0,0,0,0,0,0,0,0,0,0,0,0,0,0,0,0,0,0,0,0,0,0,0,0,0,0,0,0,0,0,0,0,0,0,0,0,0,0,0,0,0,0,0,0,0,0,0,0,0,0,0,0,0,0,0,0,0,0,0,0,0,0,0,0,0,0,0,0,0,0,0,0,0,0,0,0,0,0,0,0,0,0,0,0,0,0,0,0,0,0,0,0,0,0,0,0
0,4.7573e-06,1.39921e-05,2.33184e-05,2.95778e-05,3.07108e-05,2.54728e-05,1.31837e-05,-6.45529e-06,-3.34866e-05,-6.77808e-05,-0.000109094,-0.000157107,-0.000211451,-0.00027173,-0.000337531,-0.000408434,-0.000484021,-0.00056388,-0.000647607,-0.000734812,-0.000825117,-0.000918157,-0.00101358,-0.00111106,-0.00121028,-0.00131093,-0.00141271,-0.00151536,-0.00161861,-0.00172221,-0.00182592,-0.0019295,-0.00203274,-0.00213542,-0.00223734,-0.00233829,-0.0024381,-0.00253656,-0.0026335,-0.00272874,-0.00282211,-0.00291343,-0.00300253,-0.00308924,-0.00317341,-0.00325486,-0.00333343,-0.00340897,-0.0034813,-0.00355028,-0.00361574,-0.00367753,-0.00373549,-0.00378947,-0.00383933,-0.00388492,-0.00392609,-0.00396271,-0.00399464,-0.00402176,-0.00404395,-0.0040611,-0.00407309,-0.00407983,-0.00408124,-0.00407724,-0.00406777,-0.00405277,-0.00403221,-0.00400607,-0.00397433,-0.003937,-0.00389412,-0.00384571,-0.00379185,-0.0037326,-0.00366808,-0.00359839,-0.00352368,-0.0034441,-0.00335984,-0.0032711,-0.00317809,-0.00308105,-0.00298026,-0.00287598,-0.00276852,-0.00265819,-0.00254533,-0.00243029,-0.00231344,-0.00219515,-0.00207582,-0.00195585,-0.00183565,-0.00171565,-0.00159628,-0.00147797,-0.00136115,-0.00124627,-0.00113375,-0.00102403,-0.000917538,-0.000814697,-0.000715916,-0.000621596,-0.000532123,-0.000447869,-0.000369183,-0.000296395,-0.000229809,-0.000169698,-0.000116303,-6.98216e-05,-3.0405e-05,1.85495e-06,2.69384e-05,4.49161e-05,5.59744e-05,6.04511e-05,5.88846e-05,5.20845e-05,4.12281e-05,2.7986e-05,1.46571e-05,4.21968e-06,0
0,7.00884e-06,1.8593e-05,2.84866e-05,3.21794e-05,2.65245e-05,9.45833e-06,-2.02545e-05,-6.32378e-05,-0.000119673,-0.000189424,-0.000272135,-0.000367292,-0.000474279,-0.000592409,-0.000720954,-0.000859163,-0.00100628,-0.00116154,-0.00132421,-0.00149355,-0.00166885,-0.00184944,-0.00203465,-0.00222384,-0.00241641,-0.00261177,-0.00280936,-0.00300865,-0.00320912,-0.00341029,-0.00361169,-0.00381286,-0.00401337,-0.00421281,-0.00441077,-0.00460686,-0.00480071,-0.00499194,-0.00518021,-0.00536515,-0.00554642,-0.00572369,-0.00589663,-0.0060649,-0.00622818,-0.00638615,-0.00653849,-0.0066849,-0.00682505,-0.00695863,-0.00708536,-0.00720491,-0.007317,-0.00742133,-0.00751762,-0.00760558,-0.00768496,-0.00775547,-0.00781688,-0.00786894,-0.00791142,-0.00794411,-0.00796681,-0.00797934,-0.00798154,-0.00797327,-0.00795442,-0.00792488,-0.0078846,-0.00783353,-0.00777167,-0.00769903,-0.00761567,-0.00752168,-0.00741717,-0.00730231,-0.00717729,-0.00704234,-0.00689773,-0.00674376,-0.0065808,-0.00640923,-0.00622946,-0.00604197,-0.00584725,-0.00564586,-0.00543835,-0.00522533,-0.00500746,-0.0047854,-0.00455984,-0.00433152,-0.00410119,-0.00386961,-0.00363758,-0.00340591,-0.00317539,-0.00294687,-0.00272118,-0.00249913,-0.00228157,-0.0020693,-0.00186315,-0.00166392,-0.00147237,-0.00128926,-0.00111533,-0.00095126,-0.000797711,-0.000655291,-0.000524558,-0.00040601,-0.000300074,-0.000207094,-0.000127317,-6.08749e-05,-7.75449e-06,3.22302e-05,5.9483e-05,7.46818e-05,7.88527e-05,7.3465e-05,6.0546e-05,4.28073e-05,2.37532e-05,7.73078e-06,0
0,6.57395e-06,1.56872e-05,2.02425e-05,1.51597e-05,-3.19529e-06,-3.73113e-05,-8.87635e-05,-0.000158411,-0.000246566,-0.000353125,-0.000477683,-0.000619611,-0.000778122,-0.000952321,-0.00114124,-0.00134386,-0.00155916,-0.00178609,-0.00202363,-0.00227074,-0.00252644,-0.00278977,-0.00305977,-0.00333554,-0.00361622,-0.00390096,-0.00418896,-0.00447943,-0.00477165,-0.00506489,-0.00535847,-0.00565174,-0.00594405,-0.00623479,-0.00652338,-0.00680924,-0.00709182,-0.00737056,-0.00764495,-0.00791447,-0.00817862,-0.00843688,-0.00868879,-0.00893385,-0.00917159,-0.00940154,-0.00962324,-0.00983622,-0.01004,-0.0102342,-0.0104184,-0.010592,-0.0107547,-0.0109061,-0.0110457,-0.0111732,-0.0112881,-0.01139,-0.0114787,-0.0115538,-0.0116149,-0.0116617,-0.011694,-0.0117115,-0.011714,-0.0117013,-0.0116732,-0.0116296,-0.0115705,-0.0114957,-0.0114052,-0.0112992,-0.0111776,-0.0110406,-0.0108885,-0.0107214,-0.0105395,-0.0103434,-0.0101333,-0.00990968,-0.00967309,-0.00942406,-0.00916323,-0.00889124,-0.00860884,-0.0083168,-0.00801594,-0.00770714,-0.00739132,-0.00706944,-0.00674252,-0.00641158,-0.00607772,-0.00574202,-0.00540564,-0.0050697,-0.00473539,-0.00440388,-0.00407636,-0.00375402,-0.00343803,-0.00312956,-0.00282978,-0.00253981,-0.00226077,-0.00199371,-0.00173966,-0.00149961,-0.00127447,-0.00106508,-0.000872219,-0.000696567,-0.000538699,-0.000399066,-0.000277976,-0.000175568,-9.17765e-05,-2.62925e-05,2.14885e-05,5.25315e-05,6.82402e-05,7.055e-05,6.20315e-05,4.59983e-05,2.66168e-05,9.06691e-06,0
0,4.36798e-06,7.57291e-06,2.55913e-06,-1.58233e-05,-5.13209e-05,-0.000106563,-0.000183268,-0.000282413,-0.000404382,-0.000549096,-0.000716118,-0.000904742,-0.00111406,-0.00134302,-0.00159046,-0.00185518,-0.00213591,-0.00243139,-0.00274032,-0.00306146,-0.00339356,-0.0037354,-0.0040858,-0.00444361,-0.00480772,-0.00517706,-0.0055506,-0.00592734,-0.00630633,-0.00668665,-0.0070674,-0.00744774,-0.00782683,-0.00820389,-0.00857814,-0.00894883,-0.00931524,-0.00967666,-0.0100324,-0.0103818,-0.0107242,-0.0110589,-0.0113853,-0.0117027,-0.0120107,-0.0123084,-0.0125954,-0.0128711,-0.0131347,-0.0133859,-0.013624,-0.0138483,-0.0140585,-0.0142539,-0.0144341,-0.0145984,-0.0147464,-0.0148777,-0.0149917,-0.015088,-0.0151663,-0.0152261,-0.015267,-0.0152889,-0.0152913,-0.015274,-0.0152369,-0.0151798,-0.0151026,-0.0150052,-0.0148876,-0.01475,-0.0145923,-0.0144148,-0.0142178,-0.0140015,-0.0137663,-0.0135127,-0.0132411,-0.0129522,-0.0126466,-0.012325,-0.0119882,-0.0116372,-0.0112727,-0.0108959,-0.0105077,-0.0101093,-0.00970187,-0.00928665,-0.00886491,-0.008438,-0.00800727,-0.00757414,-0.00714005,-0.00670647,-0.00627488,-0.00584678,-0.00542369,-0.0050071,-0.00459852,-0.00419944,-0.00381131,-0.00343558,-0.00307363,-0.00272682,-0.00239643,-0.00208368,-0.00178973,-0.00151562,-0.00126232,-0.00103064,-0.000821279,-0.000634778,-0.000471483,-0.000331527,-0.000214793,-0.000120866,-4.89802e-05,2.04239e-06,3.38673e-05,4.87286e-05,4.95187e-05,3.98875e-05,2.43723e-05,8.63481e-06,0
0,1.13287e-06,-3.88362e-06,-2.14621e-05,-5.64391e-05,-0.0001124,-0.000191904,-0.00029665,-0.000427619,-0.000585197,-0.000769291,-0.000979426,-0.00121483,-0.00147449,-0.00175723,-0.00206176,-0.00238669,-0.00273058,-0.00309196,-0.00346936,-0.00386129,-0.00426631,-0.00468299,-0.00510991,-0.00554572,-0.00598911,-0.00643877,-0.00689349,-0.00735206,-0.00781333,-0.00827618,-0.00873954,-0.00920237,-0.00966368,-0.0101225,-0.0105778,-0.0110288,-0.0114746,-0.0119143,-0.012347,-0.0127719,-0.0131882,-0.0135952,-0.013992,-0.0143778,-0.014752,-0.0151138,-0.0154624,-0.0157971,-0.0161172,-0.016422,-0.0167108,-0.0169829,-0.0172377,-0.0174745,-0.0176926,-0.0178915,-0.0180705,-0.0182291,-0.0183667,-0.0184829,-0.018577,-0.0186487,-0.0186976,-0.0187232,-0.0187252,-0.0187035,-0.0186576,-0.0185875,-0.0184931,-0.0183742,-0.018231,-0.0180634,-0.0178716,-0.0176559,-0.0174166,-0.0171539,-0.0168685,-0.0165608,-0.0162315,-0.0158812,-0.0155108,-0.0151211,-0.014713,-0.0142878,-0.0138463,-0.0133899,-0.0129198,-0.0124374,-0.0119441,-0.0114413,-0.0109306,-0.0104136,-0.00989198,-0.00936735,-0.00884147,-0.00831608,-0.00779298,-0.00727395,-0.00676078,-0.00625529,-0.00575925,-0.00527444,-0.00480259,-0.00434541,-0.00390455,-0.00348162,-0.00307812,-0.00269551,-0.00233513,-0.0019982,-0.00168584,-0.00139901,-0.0011385,-0.000904903,-0.000698611,-0.000519753,-0.000368171,-0.000243372,-0.00014448,-7.01757e-05,-1.86335e-05,1.25498e-05,2.64321e-05,2.6821e-05,1.84092e-05,7.01133e-06,0
0,-2.65923e-06,-1.73588e-05,-4.95362e-05,-0.000103442,-0.000182293,-0.000288412,-0.000423348,-0.000587983,-0.000782635,-0.00100715,-0.00126099,-0.0015433,-0.00185299,-0.00218877,-0.00254922,-0.00293282,-0.00333797,-0.00376304,-0.00420638,-0.00466633,-0.00514125,-0.00562953,-0.00612957,-0.00663982,-0.00715877,-0.00768494,-0.00821692,-0.00875332,-0.00929281,-0.00983409,-0.0103759,-0.0109171,-0.0114564,-0.0119928,-0.0125251,-0.0130523,-0.0135733,-0.0140872,-0.0145928,-0.0150893,-0.0155757,-0.0160511,-0.0165145,-0.0169652,-0.017402,-0.0178243,-0.0182312,-0.0186217,-0.0189951,-0.0193505,-0.0196872,-0.0200044,-0.0203012,-0.0205769,-0.0208308,-0.0210621,-0.0212703,-0.0214545,-0.0216143,-0.0217489,-0.0218579,-0.0219406,-0.0219968,-0.0220258,-0.0220273,-0.0220011,-0.0219469,-0.0218644,-0.0217535,-0.0216143,-0.0214467,-0.0212508,-0.0210268,-0.020775,-0.0204957,-0.0201894,-0.0198567,-0.019498,-0.0191143,-0.0187062,-0.0182748,-0.017821,-0.0173459,-0.0168508,-0.016337,-0.0158058,-0.0152586,-0.0146972,-0.014123,-0.0135378,-0.0129434,-0.0123416,-0.0117342,-0.0111234,-0.0105109,-0.00989888,-0.00928934,-0.00868434,-0.00808593,-0.00749619,-0.00691717,-0.00635088,-0.00579932,-0.00526445,-0.00474813,-0.0042522,-0.00377838,-0.00332831,-0.00290351,-0.00250537,-0.00213513,-0.00179387,-0.00148246,-0.00120156,-0.000951608,-0.000732723,-0.000544732,-0.0003871,-0.000258886,-0.000158696,-8.46293e-05,-3.42133e-05,-4.34198e-06,8.81023e-06,9.90728e-06,4.63827e-06,0
0,-6.72439e-06,-3.19637e-05,-8.00398e-05,-0.00015445,-0.000257893,-0.000392327,-0.000559045,-0.000758744,-0.000991605,-0.00125737,-0.00155539,-0.00188474,-0.00224421,-0.00263243,-0.00304784,-0.00348882,-0.00395363,-0.00444049,-0.0049476,-0.00547316,-0.00601536,-0.00657241,-0.00714257,-0.00772409,-0.00831531,-0.00891458,-0.00952031,-0.0101309,-0.010745,-0.011361,-0.0119776,-0.0125933,-0.0132069,-0.0138171,-0.0144226,-0.0150222,-0.0156147,-0.016199,-0.0167739,-0.0173384,-0.0178913,-0.0184317,-0.0189583,-0.0194704,-0.0199667,-0.0204464,-0.0209084,-0.0213518,-0.0217757,-0.0221791,-0.0225611,-0.0229208,-0.0232573,-0.0235699,-0.0238576,-0.0241196,-0.0243552,-0.0245637,-0.0247443,-0.0248963,-0.0250192,-0.0251123,-0.0251752,-0.0252074,-0.0252084,-0.0251779,-0.0251156,-0.0250213,-0.024895,-0.0247365,-0.0245458,-0.0243232,-0.0240687,-0.0237828,-0.0234658,-0.0231183,-0.0227408,-0.0223342,-0.0218991,-0.0214365,-0.0209475,-0.0204333,-0.019895,-0.019334,-0.0187519,-0.01815,-0.0175302,-0.0168941,-0.0162436,-0.0155806,-0.0149071,-0.0142251,-0.0135367,-0.0128442,-0.0121498,-0.0114556,-0.0107641,-0.0100774,-0.00939799,-0.00872807,-0.00806993,-0.00742586,-0.00679806,-0.0061887,-0.00559989,-0.00503363,-0.00449186,-0.00397638,-0.00348886,-0.00303086,-0.00260372,-0.00220862,-0.00184653,-0.00151818,-0.00122401,-0.000964194,-0.00073855,-0.000546533,-0.000387186,-0.000259097,-0.000160355,-8.85014e-05,-4.04761e-05,-1.25503e-05,-2.39483e-07,1.81701e-06,0
0,-1.08933e-05,-4.71142e-05,-0.000111845,-0.000207746,-0.0003369,-0.000500807,-0.000700421,-0.000936183,-0.00120808,-0.00151568,-0.00185824,-0.00223468,-0.00264371,-0.00308384,-0.00355341,-0.00405066,-0.00457375,-0.00512077,-0.00568979,-0.00627886,-0.00688603,-0.00750938,-0.00814699,-0.00879699,-0.00945755,-0.0101269,-0.0108032,-0.0114849,-0.0121702,-0.0128576,-0.0135455,-0.0142324,-0.0149168,-0.0155973,-0.0162726,-0.0169412,-0.0176018,-0.0182532,-0.0188941,-0.0195233,-0.0201395,-0.0207416,-0.0213285,-0.0218989,-0.0224517,-0.022986,-0.0235004,-0.0239941,-0.0244659,-0.0249149,-0.0253399,-0.02574,-0.0261143,-0.0264618,-0.0267815,-0.0270727,-0.0273343,-0.0275657,-0.0277661,-0.0279347,-0.0280708,-0.0281737,-0.0282431,-0.0282782,-0.0282787,-0.0282442,-0.0281743,-0.028069,-0.0279279,-0.0277512,-0.0275388,-0.0272908,-0.0270076,-0.0266895,-0.0263369,-0.0259504,-0.0255307,-0.0250786,-0.024595,-0.024081,-0.0235376,-0.0229662,-0.0223681,-0.0217448,-0.021098,-0.0204294,-0.0197407,-0.0190339,-0.0183111,-0.0175743,-0.0168257,-0.0160676,-0.0153023,-0.0145322,-0.0137598,-0.0129874,-0.0122178,-0.0114532,-0.0106964,-0.00994978,-0.00921588,-0.00849718,-0.0077961,-0.00711501,-0.00645621,-0.0058219,-0.00521417,-0.004635,-0.00408621,-0.00356946,-0.00308623,-0.00263781,-0.00222523,-0.00184929,-0.00151049,-0.00120904,-0.000944773,-0.00071718,-0.000525319,-0.000367812,-0.000242794,-0.000147887,-8.01516e-05,-3.60483e-05,-1.13831e-05,-1.25213e-06,0
0,-1.50647e-05,-6.24309e-05,-0.00014418,-0.000262109,-0.000417631,-0.000611728,-0.00084495,-0.00111742,-0.00142889,-0.00177873,-0.00216601,-0.00258953,-0.00304787,-0.00353942,-0.00406241,-0.00461497,-0.00519514,-0.0058009,-0.00643019,-0.00708093,-0.00775106,-0.0084385,-0.00914123,-0.00985722,-0.0105845,-0.0113212,-0.0120653,-0.0128151,-0.0135688,-0.0143246,-0.0150807,-0.0158357,-0.0165879,-0.0173357,-0.0180775,-0.018812,-0.0195377,-0.0202532,-0.020957,-0.0216479,-0.0223246,-0.0229856,-0.0236298,-0.0242559,-0.0248627,-0.0254489,-0.0260134,-0.0265549,-0.0270724,-0.0275648,-0.0280308,-0.0284695,-0.0288797,-0.0292605,-0.0296108,-0.0299297,-0.0302163,-0.0304696,-0.0306888,-0.0308732,-0.031022,-0.0311344,-0.03121,-0.031248,-0.0312482,-0.03121,-0.0311331,-0.0310173,-0.0308625,-0.0306686,-0.0304357,-0.0301639,-0.0298535,-0.0295049,-0.0291187,-0.0286953,-0.0282357,-0.0277406,-0.027211,-0.0266482,-0.0260533,-0.0254276,-0.0247728,-0.0240905,-0.0233823,-0.0226502,-0.0218961,-0.0211222,-0.0203305,-0.0195235,-0.0187034,-0.0178728,-0.0170341,-0.0161899,-0.015343,-0.0144959,-0.0136514,-0.0128122,-0.0119811,-0.0111608,-0.010354,-0.0095633,-0.00879145,-0.00804096,-0.00731429,-0.00661382,-0.00594181,-0.00530037,-0.00469148,-0.00411692,-0.00357829,-0.00307695,-0.00261405,-0.00219044,-0.0018067,-0.00146308,-0.00115948,-0.000895422,-0.000670034,-0.000482006,-0.000329572,-0.000210482,-0.000121981,-6.07843e-05,-2.30631e-05,-4.43623e-06,0
0,-1.91785e-05,-7.767e-05,-0.000176523,-0.000316684,-0.000498874,-0.000723523,-0.000990731,-0.00130027,-0.00165159,-0.00204384,-0.00247589,-0.00294638,-0.00345374,-0.00399624,-0.00457198,-0.00517898,-0.00581516,-0.00647839,-0.0071665,-0.0078773,-0.00860859,-0.0093582,-0.010124,-0.0109038,-0.0116955,-0.012497,-0.0133065,-0.0141218,-0.0149412,-0.0157626,-0.0165844,-0.0174047,-0.0182218,-0.019034,-0.0198397,-0.0206374,-0.0214253,-0.0222021,-0.0229662,-0.0237162,-0.0244506,-0.025168,-0.025867,-0.0265464,-0.0272047,-0.0278406,-0.0284529,-0.0290403,-0.0296016,-0.0301355,-0.0306408,-0.0311163,-0.031561,-0.0319737,-0.0323533,-0.0326989,-0.0330093,-0.0332837,-0.0335211,-0.0337207,-0.0338818,-0.0340035,-0.0340852,-0.0341263,-0.0341263,-0.0340848,-0.0340015,-0.033876,-0.0337083,-0.0334983,-0.0332461,-0.0329519,-0.0326158,-0.0322385,-0.0318204,-0.0313622,-0.0308647,-0.0303289,-0.0297558,-0.0291466,-0.0285027,-0.0278256,-0.0271168,-0.0263782,-0.0256116,-0.024819,-0.0240026,-0.0231645,-0.0223072,-0.021433,-0.0205446,-0.0196445,-0.0187355,-0.0178203,-0.0169018,-0.0159828,-0.0150664,-0.0141553,-0.0132525,-0.012361,-0.0114837,-0.0106233,-0.0097828,-0.00896482,-0.00817202,-0.00740696,-0.00667203,-0.00596951,-0.00530148,-0.00466987,-0.00407637,-0.00352247,-0.00300939,-0.00253807,-0.00210917,-0.001723,-0.00137954,-0.00107839,-0.000818767,-0.000599464,-0.000418849,-0.000274846,-0.000164925,-8.61034e-05,-3.49563e-05,-7.647e-06,0
0,-2.31994e-05,-9.26768e-05,-0.000208528,-0.000370881,-0.000579769,-0.00083505,-0.00113635,-0.00148306,-0.0018743,-0.00230896,-0.00278569,-0.00330295,-0.00385899,-0.00445194,-0.00507979,-0.00574042,-0.00643164,-0.00715121,-0.00789685,-0.00866626,-0.00945714,-0.0102672,-0.0110941,-0.0119358,-0.0127898,-0.0136542,-0.0145267,-0.0154053,-0.0162879,-0.0171726,-0.0180575,-0.0189406,-0.0198201,-0.0206943,-0.0215614,-0.0224196,-0.0232674,-0.024103,-0.0249249,-0.0257316,-0.0265214,-0.0272929,-0.0280446,-0.0287751,-0.0294829,-0.0301665,-0.0308248,-0.0314562,-0.0320594,-0.0326332,-0.0331762,-0.0336873,-0.0341651,-0.0346086,-0.0350165,-0.0353877,-0.0357213,-0.0360161,-0.0362712,-0.0364857,-0.0366588,-0.0367896,-0.0368776,-0.0369219,-0.0369222,-0.0368779,-0.0367888,-0.0366544,-0.0364748,-0.0362498,-0.0359795,-0.0356641,-0.0353039,-0.0348994,-0.0344512,-0.03396,-0.0334266,-0.0328521,-0.0322376,-0.0315843,-0.0308938,-0.0301676,-0.0294074,-0.0286151,-0.0277927,-0.0269423,-0.0260661,-0.0251666,-0.0242463,-0.0233077,-0.0223536,-0.0213867,-0.02041,-0.0194264,-0.0184389,-0.0174506,-0.0164645,-0.0154838,-0.0145116,-0.013551,-0.0126051,-0.0116769,-0.0107694,-0.00988551,-0.00902801,-0.0081996,-0.00740285,-0.00664017,-0.00591377,-0.00522569,-0.00457777,-0.00397158,-0.00340843,-0.00288938,-0.00241516,-0.00198618,-0.00160251,-0.00126386,-0.000969538,-0.000718486,-0.000509232,-0.000339902,-0.000208222,-0.000111538,-4.68392e-05,-1.08262e-05,0
0,-2.71078e-05,-0.000107357,-0.000239969,-0.000424302,-0.000659717,-0.000945498,-0.00128079,-0.00166457,-0.00209562,-0.00257253,-0.00309372,-0.00365744,-0.00426177,-0.00490467,-0.00558398,-0.00629748,-0.00704285,-0.00781773,-0.00861974,-0.00944647,-0.0102955,-0.0111645,-0.012051,-0.0129527,-0.0138672,-0.0147924,-0.015726,-0.0166658,-0.0176096,-0.0185554,-0.0195012,-0.0204449,-0.0213846,-0.0223185,-0.0232447,-0.0241613,-0.0250666,-0.0259589,-0.0268365,-0.0276977,-0.0285409,-0.0293645,-0.0301669,-0.0309466,-0.031702,-0.0324317,-0.0331341,-0.033808,-0.0344517,-0.035064,-0.0356435,-0.0361889,-0.0366988,-0.0371721,-0.0376074,-0.0380037,-0.0383597,-0.0386745,-0.038947,-0.0391762,-0.0393612,-0.0395013,-0.0395956,-0.0396436,-0.0396445,-0.0395981,-0.0395038,-0.0393614,-0.0391708,-0.0389318,-0.0386446,-0.0383094,-0.0379266,-0.0374965,-0.0370198,-0.0364973,-0.0359299,-0.0353186,-0.0346647,-0.0339695,-0.0332345,-0.0324614,-0.031652,-0.0308082,-0.0299323,-0.0290264,-0.0280929,-0.0271343,-0.0261533,-0.0251526,-0.0241351,-0.0231037,-0.0220616,-0.0210117,-0.0199573,-0.0189016,-0.017848,-0.0167996,-0.0157597,-0.0147317,-0.0137188,-0.0127243,-0.0117511,-0.0108025,-0.00988144,-0.00899066,-0.00813293,-0.00731078,-0.00652658,-0.00578249,-0.00508045,-0.00442215,-0.00380904,-0.00324224,-0.00272261,-0.00225065,-0.00182656,-0.00145014,-0.00112086,-0.000837805,-0.000599692,-0.000404867,-0.000251331,-0.00013676,-5.85607e-05,-1.39363e-05,0
0,-3.08943e-05,-0.000121655,-0.000270709,-0.000476689,-0.000738313,-0.0010543,-0.00142331,-0.0018439,-0.00231449,-0.00283337,-0.00339871,-0.0040085,-0.00466066,-0.00535297,-0.00608312,-0.00684875,-0.00764743,-0.00847667,-0.00933398,-0.0102169,-0.0111228,-0.0120493,-0.0129939,-0.0139541,-0.0149275,-0.0159118,-0.0169047,-0.0179038,-0.0189069,-0.0199119,-0.0209166,-0.021919,-0.0229169,-0.0239085,-0.0248918,-0.0258648,-0.0268257,-0.0277727,-0.0287041,-0.029618,-0.0305127,-0.0313866,-0.0322379,-0.0330652,-0.0338667,-0.0346408,-0.0353861,-0.036101,-0.0367841,-0.0374338,-0.0380487,-0.0386274,-0.0391686,-0.0396709,-0.040133,-0.0405538,-0.040932,-0.0412664,-0.0415561,-0.0417999,-0.041997,-0.0421465,-0.0422475,-0.0422995,-0.0423017,-0.0422537,-0.0421551,-0.0420056,-0.0418049,-0.0415532,-0.0412503,-0.0408966,-0.0404924,-0.0400383,-0.0395347,-0.0389826,-0.0383828,-0.0377366,-0.0370451,-0.0363098,-0.0355323,-0.0347142,-0.0338576,-0.0329645,-0.0320371,-0.0310777,-0.0300889,-0.0290732,-0.0280336,-0.0269728,-0.0258938,-0.0247999,-0.0236941,-0.0225798,-0.0214603,-0.0203389,-0.0192192,-0.0181046,-0.0169986,-0.0159045,-0.0148259,-0.0137661,-0.0127283,-0.011716,-0.0107321,-0.00977964,-0.00886151,-0.0079804,-0.00713878,-0.00633896,-0.00558301,-0.00487273,-0.00420968,-0.00359512,-0.00303,-0.00251496,-0.00205031,-0.001636,-0.00127165,-0.000956511,-0.000689498,-0.000469195,-0.000293877,-0.000161554,-7.0023e-05,-1.69544e-05,0
0,-3.45558e-05,-0.000135544,-0.000300667,-0.000527883,-0.000815299,-0.00116109,-0.00156342,-0.00202043,-0.00253018,-0.00309064,-0.0036997,-0.00435512,-0.0050546,-0.00579575,-0.00657611,-0.00739316,-0.00824434,-0.00912706,-0.0100387,-0.0109767,-0.0119383,-0.0129211,-0.0139224,-0.0149398,-0.0159706,-0.0170125,-0.0180631,-0.0191199,-0.0201807,-0.0212431,-0.022305,-0.0233643,-0.0244187,-0.0254662,-0.0265047,-0.0275324,-0.0285472,-0.0295472,-0.0305306,-0.0314956,-0.0324403,-0.0333629,-0.0342618,-0.0351351,-0.0359813,-0.0367987,-0.0375857,-0.0383405,-0.0390618,-0.0397479,-0.0403974,-0.0410087,-0.0415805,-0.0421114,-0.0425999,-0.0430448,-0.0434449,-0.0437989,-0.0441057,-0.0443643,-0.0445737,-0.0447329,-0.0448411,-0.0448976,-0.0449017,-0.044853,-0.0447509,-0.0445952,-0.0443856,-0.0441222,-0.0438049,-0.043434,-0.0430099,-0.042533,-0.0420041,-0.041424,-0.0407935,-0.040114,-0.0393867,-0.038613,-0.0377947,-0.0369335,-0.0360315,-0.0350908,-0.0341137,-0.0331026,-0.0320603,-0.0309893,-0.0298927,-0.0287735,-0.0276348,-0.0264798,-0.0253119,-0.0241346,-0.0229513,-0.0217657,-0.0205812,-0.0194015,-0.0182303,-0.0170712,-0.0159277,-0.0148034,-0.0137019,-0.0126264,-0.0115802,-0.0105666,-0.00958841,-0.00864861,-0.00774979,-0.00689439,-0.00608459,-0.00532236,-0.00460936,-0.00394698,-0.00333632,-0.00277813,-0.00227286,-0.00182062,-0.00142118,-0.00107399,-0.000778162,-0.000532523,-0.00033562,-0.000185781,-8.11679e-05,-1.98677e-05,0
0,-3.80932e-05,-0.000149015,-0.000329806,-0.000577798,-0.000890518,-0.00126561,-0.00170078,-0.00219374,-0.00274218,-0.00334374,-0.00399602,-0.00469656,-0.00544283,-0.00623223,-0.00706216,-0.00792993,-0.00883284,-0.0097682,-0.0107333,-0.0117253,-0.0127417,-0.0137796,-0.0148365,-0.0159098,-0.0169967,-0.0180948,-0.0192017,-0.0203147,-0.0214316,-0.02255,-0.0236676,-0.0247822,-0.0258914,-0.0269933,-0.0280857,-0.0291664,-0.0302336,-0.0312851,-0.0323192,-0.0333337,-0.034327,-0.0352971,-0.0362422,-0.0371605,-0.0380503,-0.0389098,-0.0397374,-0.0405314,-0.0412901,-0.0420119,-0.0426953,-0.0433387,-0.0439406,-0.0444996,-0.0450143,-0.0454832,-0.0459051,-0.0462788,-0.046603,-0.0468766,-0.0470986,-0.047268,-0.0473839,-0.0474456,-0.0474524,-0.0474038,-0.0472991,-0.0471382,-0.0469208,-0.0466469,-0.0463164,-0.0459297,-0.045487,-0.044989,-0.0444361,-0.0438294,-0.0431699,-0.0424586,-0.041697,-0.0408867,-0.0400292,-0.0391265,-0.0381807,-0.037194,-0.0361688,-0.0351076,-0.0340132,-0.0328885,-0.0317364,-0.0305601,-0.0293629,-0.0281482,-0.0269195,-0.0256803,-0.0244343,-0.0231853,-0.0219369,-0.0206931,-0.0194575,-0.0182339,-0.0170262,-0.015838,-0.014673,-0.0135347,-0.0124266,-0.0113519,-0.0103139,-0.00931551,-0.00835953,-0.00744853,-0.00658485,-0.00577059,-0.00500756,-0.00429728,-0.00364097,-0.00303956,-0.00249364,-0.00200347,-0.001569,-0.00118986,-0.000865391,-0.00059464,-0.000376425,-0.000209369,-9.19665e-05,-2.26714e-05,0
0,-4.15101e-05,-0.00016207,-0.000358115,-0.000626397,-0.000963896,-0.00136775,-0.00183521,-0.00236357,-0.00295016,-0.00359228,-0.00428725,-0.00503234,-0.00582481,-0.00666186,-0.0075407,-0.00845851,-0.00941243,-0.0103996,-0.0114173,-0.0124626,-0.0135326,-0.0146247,-0.0157361,-0.0168641,-0.018006,-0.0191591,-0.020321,-0.021489,-0.0226607,-0.0238337,-0.0250056,-0.0261741,-0.0273369,-0.0284918,-0.0296365,-0.0307691,-0.0318873,-0.0329891,-0.0340725,-0.0351355,-0.0361761,-0.0371926,-0.0381828,-0.0391451,-0.0400775,-0.0409784,-0.0418458,-0.0426782,-0.0434737,-0.0442307,-0.0449476,-0.0456227,-0.0462546,-0.0468416,-0.0473823,-0.0478753,-0.0483191,-0.0487126,-0.0490545,-0.0493435,-0.0495787,-0.0497589,-0.0498832,-0.049951,-0.0499613,-0.0499136,-0.0498075,-0.0496425,-0.0494185,-0.0491352,-0.0487929,-0.0483916,-0.0479317,-0.0474138,-0.0468386,-0.0462068,-0.0455196,-0.0447782,-0.0439838,-0.0431382,-0.0422431,-0.0413004,-0.0403123,-0.039281,-0.0382091,-0.0370991,-0.035954,-0.0347767,-0.0335703,-0.0323381,-0.0310835,-0.02981,-0.0285214,-0.0272212,-0.0259133,-0.0246016,-0.0232899,-0.0219824,-0.0206828,-0.0193953,-0.0181236,-0.0168717,-0.0156434,-0.0144424,-0.0132724,-0.0121367,-0.0110387,-0.00998164,-0.00896835,-0.00800159,-0.00708386,-0.00621739,-0.00540415,-0.0046458,-0.00394374,-0.00329902,-0.0027124,-0.00218431,-0.00171489,-0.00130396,-0.000951051,-0.000655456,-0.000416238,-0.000232293,-0.000102412,-2.53658e-05,0
0,-4.48117e-05,-0.000174721,-0.000385607,-0.000673681,-0.00103541,-0.00146746,-0.00196662,-0.00252979,-0.00315393,-0.00383603,-0.0045731,-0.00536216,-0.00620022,-0.00708431,-0.00801142,-0.00897857,-0.00998279,-0.0110211,-0.0120905,-0.0131882,-0.0143111,-0.0154564,-0.0166213,-0.017803,-0.0189988,-0.0202059,-0.0214216,-0.0226435,-0.0238689,-0.0250953,-0.0263203,-0.0275416,-0.0287567,-0.0299634,-0.0311594,-0.0323425,-0.0335107,-0.0346616,-0.0357933,-0.0369037,-0.0379908,-0.0390527,-0.0400873,-0.0410927,-0.0420671,-0.0430086,-0.0439153,-0.0447855,-0.0456174,-0.0464093,-0.0471594,-0.0478661,-0.0485278,-0.0491428,-0.0497097,-0.0502269,-0.0506931,-0.0511068,-0.0514668,-0.0517718,-0.0520207,-0.0522125,-0.0523461,-0.0524207,-0.0524355,-0.0523899,-0.0522834,-0.0521155,-0.051886,-0.0515948,-0.0512418,-0.0508274,-0.0503517,-0.0498154,-0.0492191,-0.0485638,-0.0478503,-0.0470801,-0.0462545,-0.0453751,-0.0444437,-0.0434623,-0.0424332,-0.0413586,-0.0402412,-0.0390836,-0.0378889,-0.03666,-0.0354003,-0.0341131,-0.0328019,-0.0314704,-0.0301224,-0.0287618,-0.0273925,-0.0260185,-0.0246439,-0.0232729,-0.0219096,-0.0205581,-0.0192225,-0.0179069,-0.0166152,-0.0153514,-0.0141192,-0.0129222,-0.011764,-0.0106479,-0.00957702,-0.00855418,-0.00758207,-0.00666309,-0.00579937,-0.00499272,-0.0042447,-0.00355654,-0.00292915,-0.00236315,-0.00185885,-0.00141627,-0.00103514,-0.000714973,-0.000455068,-0.000254565,-0.000112516,-2.79558e-05,0
0,-4.80044e-05,-0.000186983,-0.000412304,-0.000719677,-0.00110508,-0.00156473,-0.00209499,-0.00269236,-0.00335344,-0.0040749,-0.00485346,-0.00568587,-0.00656891,-0.00749939,-0.00847412,-0.00948997,-0.0105438,-0.0116325,-0.012753,-0.0139022,-0.0150771,-0.0162749,-0.0174924,-0.018727,-0.0199756,-0.0212357,-0.0225044,-0.023779,-0.025057,-0.0263359,-0.027613,-0.028886,-0.0301524,-0.0314099,-0.0326562,-0.0338889,-0.035106,-0.0363052,-0.0374843,-0.0386413,-0.0397741,-0.0408806,-0.0419589,-0.0430069,-0.0440227,-0.0450043,-0.04595,-0.0468577,-0.0477258,-0.0485523,-0.0493356,-0.0500739,-0.0507655,-0.0514087,-0.052002,-0.0525439,-0.0530328,-0.0534673,-0.053846,-0.0541678,-0.0544313,-0.0546354,-0.0547792,-0.0548617,-0.0548821,-0.0548397,-0.054734,-0.0545644,-0.0543308,-0.0540329,-0.0536707,-0.0532445,-0.0527544,-0.0522011,-0.0515853,-0.0509077,-0.0501695,-0.0493719,-0.0485163,-0.0476044,-0.0466381,-0.0456193,-0.0445503,-0.0434336,-0.0422717,-0.0410676,-0.0398242,-0.0385446,-0.0372323,-0.0358907,-0.0345236,-0.0331346,-0.0317277,-0.0303069,-0.0288764,-0.0274403,-0.0260029,-0.0245685,-0.0231413,-0.0217257,-0.0203259,-0.0189462,-0.0175908,-0.0162637,-0.0149689,-0.0137102,-0.0124913,-0.0113157,-0.0101867,-0.00910725,-0.0080803,-0.00710837,-0.00619376,-0.00533848,-0.00454423,-0.00381242,-0.00314413,-0.00254017,-0.00200103,-0.00152691,-0.00111775,-0.000773271,-0.000492976,-0.000276228,-0.0001223,-3.04491e-05,0
0,-5.10948e-05,-0.000198877,-0.000438242,-0.000764429,-0.00117297,-0.00165962,-0.00222036,-0.00285131,-0.0035487,-0.00430889,-0.00512831,-0.00600344,-0.00693083,-0.00790707,-0.0089288,-0.00999268,-0.0110954,-0.0122338,-0.0134047,-0.0146047,-0.015831,-0.0170803,-0.0183497,-0.0196363,-0.020937,-0.0222492,-0.0235699,-0.0248965,-0.0262263,-0.0275566,-0.028885,-0.0302088,-0.0315256,-0.032833,-0.0341287,-0.0354103,-0.0366756,-0.0379222,-0.0391481,-0.040351,-0.0415289,-0.0426795,-0.0438009,-0.044891,-0.0459479,-0.0469694,-0.0479537,-0.0488989,-0.049803,-0.0506643,-0.0514808,-0.0522509,-0.0529726,-0.0536445,-0.0542647,-0.0548317,-0.0553439,-0.0557999,-0.0561982,-0.0565375,-0.0568165,-0.0570341,-0.0571891,-0.0572806,-0.0573078,-0.0572699,-0.0571662,-0.0569964,-0.0567599,-0.0564567,-0.0560868,-0.0556502,-0.0551472,-0.0545784,-0.0539444,-0.053246,-0.0524844,-0.0516608,-0.0507766,-0.0498335,-0.0488334,-0.0477784,-0.0466707,-0.0455128,-0.0443075,-0.0430576,-0.0417663,-0.0404367,-0.0390724,-0.037677,-0.0362542,-0.034808,-0.0333424,-0.0318616,-0.0303699,-0.0288716,-0.0273711,-0.0258729,-0.0243815,-0.0229014,-0.0214369,-0.0199927,-0.0185729,-0.0171819,-0.0158238,-0.0145027,-0.0132224,-0.0119866,-0.0107987,-0.00966206,-0.00857963,-0.00755418,-0.00658817,-0.00568378,-0.00484292,-0.00406715,-0.00335776,-0.00271573,-0.00214171,-0.00163612,-0.00119908,-0.000830493,-0.000530064,-0.000297345,-0.000131799,-3.2856e-05,0
0,-5.40898e-05,-0.000210425,-0.000463459,-0.000807992,-0.00123912,-0.00175221,-0.00234282,-0.00300671,-0.00373979,-0.00453807,-0.00539771,-0.00631494,-0.00728605,-0.00830743,-0.00937551,-0.0104868,-0.0116379,-0.0128253,-0.0140458,-0.0152961,-0.0165729,-0.0178732,-0.0191937,-0.0205315,-0.0218836,-0.0232471,-0.0246192,-0.0259969,-0.0273777,-0.0287587,-0.0301375,-0.0315114,-0.0328779,-0.0342346,-0.035579,-0.0369087,-0.0382215,-0.0395151,-0.0407871,-0.0420355,-0.0432579,-0.0444523,-0.0456165,-0.0467485,-0.0478461,-0.0489075,-0.0499304,-0.050913,-0.0518534,-0.0527495,-0.0535996,-0.0544017,-0.0551541,-0.055855,-0.0565027,-0.0570955,-0.0576319,-0.0581102,-0.0585289,-0.0588868,-0.0591824,-0.0594145,-0.059582,-0.0596838,-0.0597191,-0.059687,-0.0595868,-0.059418,-0.0591803,-0.0588733,-0.058497,-0.0580516,-0.0575372,-0.0569543,-0.0563036,-0.0555859,-0.0548023,-0.053954,-0.0530425,-0.0520695,-0.0510368,-0.0499466,-0.0488011,-0.0476031,-0.0463551,-0.0450602,-0.0437216,-0.0423426,-0.0409267,-0.0394777,-0.0379995,-0.0364962,-0.0349719,-0.033431,-0.0318778,-0.030317,-0.028753,-0.0271906,-0.0256343,-0.024089,-0.0225592,-0.0210495,-0.0195646,-0.0181088,-0.0166865,-0.0153021,-0.0139594,-0.0126625,-0.0114149,-0.0102202,-0.00908146,-0.00800173,-0.00698363,-0.00602955,-0.00514157,-0.00432144,-0.00357063,-0.0028903,-0.00228131,-0.00174423,-0.00127938,-0.000886829,-0.000566465,-0.000318002,-0.000141053,-3.51883e-05,0