-0,-0,-0,-0,-0,-0,-0,-0,-0,-0,-0,-0,-0,-0,-0,-0,-0,-0,-0,-0,-0,-0,-0,-0,-0,-0,-0,-0,-0,-0,-0,-0,-0,-0,-0,-0,-0,-0,-0,-0,-0,-0,-0,-0,-0,-0,-0,-0,-0,-0,-0,-0,-0,-0,-0,-0,-0,-0,-0,-0,-0,-0,-0,-0,-0,-0,-0,-0,-0,-0,-0,-0,-0,-0,-0,-0,-0,-0,-0,-0,-0,-0,-0,-0,-0,-0,-0,-0,-0,-0,-0,-0,-0,-0,-0,-0,-0,-0,-0,-0,-0,-0,-0,-0,-0,-0,-0,-0,-0,-0,-0,-0,-0,-0,-0,-0,-0,-0,-0,-0,-0,-0,-0,-0,-0,-0,-0,-0
-0,-4.75501e-06,-6.99394e-06,-6.5316e-06,-4.29039e-06,-1.02587e-06,2.77364e-06,6.80784e-06,1.08922e-05,1.49119e-05,1.87953e-05,2.24974e-05,2.59912e-05,2.92611e-05,3.22996e-05,3.51046e-05,3.76779e-05,4.0024e-05,4.21491e-05,4.40605e-05,4.57665e-05,4.72757e-05,4.85968e-05,4.97388e-05,5.07101e-05,5.15192e-05,5.21741e-05,5.26826e-05,5.30518e-05,5.32883e-05,5.33986e-05,5.33883e-05,5.32626e-05,5.30264e-05,5.26838e-05,5.22387e-05,5.16945e-05,5.1054e-05,5.03198e-05,4.9494e-05,4.85786e-05,4.7575e-05,4.64844e-05,4.5308e-05,4.40465e-05,4.27008e-05,4.12713e-05,3.97585e-05,3.8163e-05,3.64853e-05,3.47259e-05,3.28853e-05,3.09644e-05,2.89642e-05,2.68856e-05,2.47301e-05,2.24994e-05,2.01952e-05,1.78201e-05,1.53765e-05,1.28675e-05,1.02966e-05,7.66763e-06,4.98497e-06,2.25341e-06,-5.21754e-07,-3.33476e-06,-6.17934e-06,-9.04876e-06,-1.19358e-05,-1.48327e-05,-1.77314e-05,-2.06233e-05,-2.34994e-05,-2.63502e-05,-2.91662e-05,-3.19372e-05,-3.46529e-05,-3.73029e-05,-3.98765e-05,-4.23629e-05,-4.47511e-05,-4.70305e-05,-4.91902e-05,-5.12197e-05,-5.31084e-05,-5.48463e-05,-5.64235e-05,-5.78307e-05,-5.9059e-05,-6.00999e-05,-6.09457e-05,-6.15893e-05,-6.20242e-05,-6.2245e-05,-6.22466e-05,-6.20253e-05,-6.15779e-05,-6.09024e-05,-5.99976e-05,-5.88632e-05,-5.75002e-05,-5.59104e-05,-5.40966e-05,-5.20628e-05,-4.98141e-05,-4.73566e-05,-4.46976e-05,-4.18459e-05,-3.88112e-05,-3.56052e-05,-3.22412e-05,-2.87346e-05,-2.51035e-05,-2.13694e-05,-1.75585e-05,-1.37026e-05,-9.84247e-06,-6.0305e-06,-2.33672e-06,1.14282e-06,4.27236e-06,6.85469e-06,8.59862e-06,9.08032e-06,7.74844e-06,4.22571e-06,-0
-0,-1.39921e-05,-1.85611e-05,-1.55856e-05,-7.39237e-06,4.10494e-06,1.75271e-05,3.19281e-05,4.66702e-05,6.13255e-05,7.56075e-05,8.9326e-05,0.000102357,0.000114623,0.00012608,0.000136703,0.00014649,0.000155446,0.000163587,0.000170933,0.000177509,0.000183344,0.000188467,0.000192908,0.000196696,0.000199861,0.000202433,0.000204437,0.000205901,0.00020685,0.000207305,0.000207289,0.000206821,0.000205918,0.000204598,0.000202875,0.000200761,0.000198267,0.000195405,0.000192182,0.000188606,0.000184682,0.000180418,0.000175816,0.000170881,0.000165616,0.000160024,0.000154108,0.000147869,0.000141312,0.000134437,0.000127249,0.000119751,0.000111948,0.000103843,9.54442e-05,8.67571e-05,7.77901e-05,6.85525e-05,5.90552e-05,4.93102e-05,3.93314e-05,2.91341e-05,1.87355e-05,8.1543e-06,-2.5888e-06,-1.34714e-05,-2.44691e-05,-3.5556e-05,-4.67042e-05,-5.78841e-05,-6.90643e-05,-8.02121e-05,-9.12929e-05,-0.000102271,-0.000113109,-0.00012377,-0.000134213,-0.000144399,-0.000154287,-0.000163836,-0.000173006,-0.000181755,-0.000190043,-0.000197829,-0.000205074,-0.00021174,-0.000217789,-0.000223187,-0.000227899,-0.000231895,-0.000235144,-0.000237621,-0.000239301,-0.000240164,-0.000240191,-0.000239368,-0.000237683,-0.00023513,-0.000231704,-0.000227406,-0.000222238,-0.00021621,-0.000209332,-0.000201623,-0.000193101,-0.000183792,-0.000173727,-0.00016294,-0.000151474,-0.000139374,-0.000126697,-0.000113506,-9.98767e-05,-8.58979e-05,-7.16766e-05,-5.73435e-05,-4.30612e-05,-2.9036e-05,-1.5535e-05,-2.91015e-06,8.36657e-06,1.76565e-05,2.40985e-05,2.6571e-05,2.37663e-05,1.46571e-05,-0
-0,-2.3348e-05,-2.84717e-05,-2.0118e-05,-2.32832e-06,2.16952e-05,4.95527e-05,7.9504e-05,0.00011031,0.000141098,0.000171257,0.000200366,0.000228136,0.000254378,0.000278975,0.000301858,0.000323,0.0003424,0.000360078,0.000376068,0.000390415,0.000403172,0.000414393,0.00042414,0.00043247,0.000439446,0.000445124,0.000449562,0.000452814,0.000454932,0.000455963,0.000455955,0.000454946,0.000452977,0.000450082,0.000446292,0.000441635,0.000436136,0.000429817,0.000422697,0.000414794,0.00040612,0.00039669,0.000386512,0.000375598,0.000363954,0.000351587,0.000338506,0.000324715,0.000310222,0.000295035,0.000279159,0.000262606,0.000245384,0.000227506,0.000208986,0.000189839,0.000170086,0.000149745,0.000128843,0.000107407,8.54667e-05,6.30571e-05,4.02162e-05,1.69855e-05,-6.58934e-06,-3.0459e-05,-5.45703e-05,-7.8866e-05,-0.000103285,-0.000127763,-0.000152232,-0.00017662,-0.000200852,-0.000224851,-0.000248535,-0.000271823,-0.000294629,-0.000316866,-0.000338448,-0.000359286,-0.00037929,-0.000398373,-0.000416447,-0.000433424,-0.000449221,-0.000463755,-0.000476945,-0.000488717,-0.000498998,-0.000507719,-0.00051482,-0.000520241,-0.000523933,-0.00052585,-0.000525954,-0.000524215,-0.000520609,-0.00051512,-0.000507742,-0.000498475,-0.000487329,-0.000474322,-0.000459483,-0.000442849,-0.000424467,-0.000404394,-0.0003827,-0.000359464,-0.000334781,-0.000308758,-0.000281522,-0.000253219,-0.00022402,-0.000194126,-0.000163777,-0.000133266,-0.000102948,-7.3268e-05,-4.47883e-05,-1.82269e-05,5.48915e-06,2.51614e-05,3.92563e-05,4.58731e-05,4.2825e-05,2.79789e-05,-0
-0,-2.96793e-05,-3.22296e-05,-1.50581e-05,1.60454e-05,5.65759e-05,0.000103095,0.000153028,0.000204472,0.000256039,0.000306725,0.000355812,0.000402797,0.000447333,0.000489196,0.000528246,0.000564414,0.000597677,0.000628051,0.00065558,0.000680327,0.000702368,0.00072179,0.000738685,0.000753149,0.000765278,0.000775167,0.000782909,0.000788594,0.000792307,0.000794129,0.000794135,0.000792395,0.000788975,0.000783934,0.000777324,0.000769194,0.000759588,0.000748543,0.000736093,0.000722268,0.000707094,0.000690592,0.000672782,0.000653682,0.000633307,0.000611671,0.000588786,0.000564666,0.000539324,0.000512774,0.000485031,0.000456111,0.000426035,0.000394825,0.000362505,0.000329106,0.000294662,0.00025921,0.000222794,0.000185462,0.00014727,0.000108277,6.85505e-05,2.81629e-05,-1.28062e-05,-5.42708e-05,-9.61384e-05,-0.00013831,-0.00018068,-0.000223136,-0.000265561,-0.000307831,-0.000349817,-0.000391386,-0.000432398,-0.000472712,-0.000512181,-0.000550658,-0.000587992,-0.000624031,-0.000658623,-0.000691617,-0.000722863,-0.000752211,-0.000779519,-0.000804644,-0.00082745,-0.000847809,-0.000865596,-0.000880696,-0.000893004,-0.00090242,-0.000908859,-0.000912245,-0.000912513,-0.000909611,-0.000903502,-0.000894159,-0.000881571,-0.000865743,-0.000846693,-0.000824456,-0.000799081,-0.000770636,-0.000739206,-0.000704895,-0.000667824,-0.000628139,-0.000586007,-0.000541621,-0.000495208,-0.000447025,-0.000397378,-0.000346621,-0.000295175,-0.000243543,-0.000192337,-0.000142301,-9.4359e-05,-4.96619e-05,-9.65186e-06,2.38652e-05,4.86501e-05,6.19856e-05,6.06977e-05,4.1274e-05,-0
-0,-3.09209e-05,-2.66628e-05,3.2782e-06,5.15517e-05,0.000112435,0.0001815,0.000255353,0.000331424,0.000407781,0.000482994,0.000556012,0.000626076,0.000692653,0.00075538,0.000814023,0.00086845,0.000918605,0.000964488,0.00100615,0.00104365,0.00107711,0.00110663,0.00113235,0.00115439,0.0011729,0.001188,0.00119984,0.00120855,0.00121423,0.00121703,0.00121704,0.00121438,0.00120913,0.00120139,0.00119123,0.00117874,0.00116397,0.00114698,0.00112782,0.00110655,0.0010832,0.0010578,0.00103039,0.00100099,0.000969637,0.000936346,0.000901139,0.000864039,0.000825068,0.00078425,0.000741609,0.000697174,0.000650976,0.000603052,0.000553443,0.000502196,0.000449363,0.000395005,0.000339191,0.000281996,0.000223504,0.000163809,0.000103013,4.12293e-05,-2.14209e-05,-8.48057e-05,-0.000148784,-0.000213203,-0.000277904,-0.000342716,-0.00040746,-0.000471947,-0.000535983,-0.000599364,-0.000661881,-0.000723318,-0.000783455,-0.000842068,-0.000898928,-0.000953809,-0.00100648,-0.00105671,-0.00110428,-0.00114896,-0.00119053,-0.00122878,-0.00126351,-0.00129453,-0.00132164,-0.00134467,-0.00136347,-0.00137789,-0.00138779,-0.00139307,-0.00139363,-0.00138939,-0.00138029,-0.00136631,-0.00134742,-0.00132364,-0.00129499,-0.00126153,-0.00122334,-0.00118053,-0.00113323,-0.0010816,-0.00102583,-0.00096616,-0.000902838,-0.000836172,-0.00076651,-0.000694256,-0.000619878,-0.000543922,-0.000467028,-0.000389955,-0.000313609,-0.000239081,-0.000167696,-0.000101074,-4.1197e-05,9.51002e-06,4.80974e-05,7.10195e-05,7.40777e-05,5.23512e-05,-0
-0,-2.57957e-05,-9.63463e-06,3.74974e-05,0.000106984,0.000192041,0.000287345,0.000388742,0.000493018,0.000597712,0.000700955,0.000801347,0.000897856,0.000989737,0.00107647,0.0011577,0.00123323,0.00130295,0.00136683,0.00142491,0.00147728,0.00152406,0.00156539,0.00160142,0.00163235,0.00165833,0.00167955,0.00169619,0.00170843,0.00171643,0.00172034,0.00172033,0.00171653,0.00170908,0.00169809,0.00168369,0.00166596,0.001645,0.0016209,0.00159372,0.00156353,0.00153039,0.00149435,0.00145545,0.00141374,0.00136926,0.00132203,0.00127209,0.00121949,0.00116423,0.00110638,0.00104595,0.000983006,0.00091758,0.00084973,0.000779517,0.00070701,0.000632285,0.000555429,0.000476542,0.00039573,0.000313116,0.000228831,0.000143023,5.58493e-05,-3.25169e-05,-0.00012189,-0.00021207,-0.000302845,-0.000393988,-0.00048526,-0.00057641,-0.000667176,-0.000757283,-0.000846447,-0.000934375,-0.00102077,-0.00110531,-0.0011877,-0.00126762,-0.00134474,-0.00141875,-0.00148933,-0.00155616,-0.00161894,-0.00167736,-0.00173112,-0.00177995,-0.00182356,-0.00186171,-0.00189416,-0.00192068,-0.00194106,-0.00195514,-0.00196276,-0.00196378,-0.0019581,-0.00194564,-0.00192635,-0.00190023,-0.00186728,-0.00182755,-0.00178112,-0.00172811,-0.00166867,-0.001603,-0.00153133,-0.00145393,-0.00137114,-0.00128331,-0.0011909,-0.0010944,-0.000994372,-0.000891486,-0.000786507,-0.000680324,-0.000573984,-0.000468718,-0.000365992,-0.000267555,-0.000175508,-9.23774e-05,-2.12003e-05,3.43789e-05,7.00085e-05,8.05074e-05,5.96831e-05,-0
-0,-1.35621e-05,2.02142e-05,8.93614e-05,0.000184309,0.000297405,0.000422555,0.000554924,0.000690711,0.000826949,0.000961349,0.00109216,0.00121808,0.00133812,0.00145161,0.00155807,0.0016572,0.00174882,0.0018329,0.00190944,0.00197853,0.00204031,0.00209495,0.00214264,0.00218359,0.00221802,0.00224616,0.00226822,0.00228443,0.00229501,0.00230015,0.00230005,0.00229489,0.00228485,0.00227008,0.00225073,0.00222693,0.0021988,0.00216645,0.00212997,0.00208946,0.00204499,0.00199663,0.00194444,0.00188849,0.00182881,0.00176547,0.00169851,0.00162797,0.00155391,0.00147638,0.00139542,0.00131111,0.0012235,0.00113267,0.00103871,0.000941702,0.000841761,0.000739003,0.000633562,0.000525584,0.000415231,0.000302684,0.000188138,7.18054e-05,-4.60827e-05,-0.000165278,-0.000285516,-0.000406511,-0.000527965,-0.000649559,-0.00077096,-0.000891819,-0.00101177,-0.00113045,-0.00124746,-0.0013624,-0.00147487,-0.00158445,-0.00169074,-0.00179329,-0.00189171,-0.00198556,-0.00207443,-0.00215791,-0.00223561,-0.00230713,-0.00237211,-0.00243018,-0.00248101,-0.00252428,-0.00255971,-0.00258702,-0.00260599,-0.00261641,-0.00261811,-0.00261095,-0.00259484,-0.00256972,-0.00253557,-0.0024924,-0.0024403,-0.00237937,-0.00230978,-0.00223172,-0.00214548,-0.00205135,-0.00194972,-0.00184103,-0.00172578,-0.00160455,-0.00147801,-0.00134693,-0.00121218,-0.00107477,-0.00093587,-0.000796831,-0.000659232,-0.000524928,-0.0003961,-0.000275331,-0.00016568,-7.07773e-05,5.07383e-06,5.67703e-05,7.82496e-05,6.22585e-05,-0
-0,6.16794e-06,6.36808e-05,0.000159984,0.000284837,0.000429918,0.000588497,0.000755158,0.000925579,0.00109634,0.00126474,0.00142872,0.00158668,0.00173743,0.0018801,0.0020141,0.00213901,0.00225462,0.00236081,0.00245759,0.00254504,0.00262331,0.00269259,0.0027531,0.00280509,0.00284882,0.00288455,0.00291256,0.00293312,0.00294649,0.00295291,0.00295263,0.00294587,0.00293285,0.00291376,0.00288878,0.00285808,0.00282182,0.00278012,0.00273313,0.00268093,0.00262365,0.00256136,0.00249415,0.0024221,0.00234527,0.00226373,0.00217755,0.00208678,0.0019915,0.00189177,0.00178767,0.00167927,0.00156666,0.00144995,0.00132924,0.00120467,0.00107635,0.000944464,0.000809169,0.000670659,0.000529145,0.000384858,0.00023805,8.89942e-05,-6.20133e-05,-0.000214655,-0.00036859,-0.000523457,-0.000678872,-0.000834431,-0.000989708,-0.00114426,-0.00129763,-0.00144933,-0.00159888,-0.00174576,-0.00188947,-0.00202948,-0.00216525,-0.00229627,-0.00242198,-0.00254187,-0.0026554,-0.00276207,-0.00286135,-0.00295278,-0.00303586,-0.00311016,-0.00317524,-0.00323072,-0.00327622,-0.00331141,-0.00333599,-0.00334972,-0.00335237,-0.00334378,-0.00332382,-0.00329244,-0.0032496,-0.00319534,-0.00312975,-0.00305299,-0.00296526,-0.00286684,-0.00275807,-0.00263936,-0.00251119,-0.00237413,-0.00222884,-0.00207605,-0.00191663,-0.00175156,-0.00158193,-0.00140903,-0.00123431,-0.00105944,-0.000886379,-0.000717356,-0.000554992,-0.00040234,-0.000262973,-0.000141079,-4.15721e-05,2.97719e-05,6.61401e-05,5.94437e-05,-0
-0,3.35521e-05,0.000121166,0.000249993,0.000409363,0.000590467,0.000786076,0.000990299,0.00119837,0.00140645,0.00161151,0.00181116,0.00200355,0.00218728,0.00236131,0.00252489,0.00267754,0.00281893,0.00294894,0.00306753,0.00317477,0.00327083,0.0033559,0.00343025,0.00349415,0.0035479,0.00359182,0.00362622,0.00365142,0.00366773,0.00367544,0.00367485,0.00366622,0.00364981,0.00362585,0.00359457,0.00355617,0.00351084,0.00345874,0.00340004,0.00333486,0.00326333,0.00318557,0.00310168,0.00301176,0.00291589,0.00281417,0.00270667,0.00259347,0.00247467,0.00235034,0.00222059,0.00208552,0.00194525,0.00179989,0.0016496,0.00149452,0.00133484,0.00117075,0.00100247,0.000830239,0.000654315,0.000474991,0.00029258,0.000107423,-8.01117e-05,-0.000269631,-0.000460712,-0.000652907,-0.000845741,-0.00103871,-0.0012313,-0.00142296,-0.00161311,-0.00180117,-0.00198654,-0.00216858,-0.00234667,-0.00252016,-0.0026884,-0.00285074,-0.00300651,-0.00315507,-0.00329577,-0.00342798,-0.00355107,-0.00366445,-0.00376754,-0.00385978,-0.00394066,-0.00400968,-0.0040664,-0.00411042,-0.00414137,-0.00415894,-0.00416286,-0.00415295,-0.00412905,-0.00409108,-0.00403902,-0.00397292,-0.0038929,-0.00379915,-0.00369194,-0.00357161,-0.00343859,-0.00329339,-0.00313663,-0.002969,-0.00279132,-0.00260453,-0.00240966,-0.00220793,-0.0020007,-0.00178951,-0.00157612,-0.00136255,-0.00115109,-0.000944381,-0.000745468,-0.000557856,-0.000385605,-0.00023342,-0.000106765,-1.19982e-05,4.34534e-05,5.08753e-05,-0
-0,6.85989e-05,0.000192796,0.000359662,0.000558288,0.000779537,0.00101582,0.00126085,0.00150952,0.00175764,0.00200186,0.00223952,0.00246854,0.00268732,0.00289464,0.00308965,0.00327174,0.00344054,0.00359585,0.00373762,0.00386591,0.00398088,0.00408276,0.00417182,0.00424838,0.00431277,0.00436536,0.00440651,0.00443657,0.00445592,0.00446488,0.00446381,0.00445301,0.00443278,0.00440342,0.00436517,0.00431828,0.00426296,0.00419944,0.00412788,0.00404845,0.00396131,0.0038666,0.00376444,0.00365495,0.00353824,0.00341443,0.0032836,0.00314588,0.00300136,0.00285015,0.00269238,0.00252818,0.00235768,0.00218105,0.00199847,0.00181012,0.00161622,0.00141701,0.00121277,0.00100378,0.000790357,0.000572864,0.000351677,0.00012721,-0.00010009,-0.000329747,-0.00056125,-0.000794057,-0.0010276,-0.00126126,-0.00149443,-0.00172643,-0.00195658,-0.00218417,-0.00240847,-0.00262874,-0.00284421,-0.00305411,-0.00325765,-0.00345405,-0.00364253,-0.00382229,-0.00399256,-0.00415259,-0.00430163,-0.00443896,-0.00456389,-0.00467576,-0.00477393,-0.00485784,-0.00492694,-0.00498074,-0.00501883,-0.00504082,-0.00504641,-0.00503536,-0.0050075,-0.00496273,-0.00490104,-0.00482249,-0.00472722,-0.00461549,-0.00448761,-0.00434401,-0.00418521,-0.00401184,-0.00382463,-0.00362446,-0.00341229,-0.00318925,-0.0029566,-0.00271579,-0.00246844,-0.00221637,-0.00196167,-0.00170667,-0.00145404,-0.0012068,-0.000968407,-0.000742802,-0.000534497,-0.000348671,-0.00019127,-6.91456e-05,9.79194e-06,3.63805e-05,-0
-0,0.000111222,0.00027851,0.000489008,0.000731715,0.000997305,0.00127793,0.00156705,0.00185922,0.00215002,0.00243581,0.0027137,0.00298141,0.00323714,0.00347954,0.00370763,0.00392072,0.00411835,0.00430028,0.00446643,0.00461686,0.00475173,0.00487128,0.0049758,0.00506565,0.0051412,0.00520285,0.00525102,0.0052861,0.00530851,0.00531865,0.00531689,0.00530361,0.00527914,0.00524381,0.00519792,0.00514176,0.00507558,0.00499962,0.0049141,0.00481921,0.00471514,0.00460205,0.00448009,0.00434942,0.00421015,0.00406243,0.00390637,0.00374211,0.00356978,0.00338951,0.00320145,0.00300577,0.00280263,0.00259222,0.00237477,0.00215049,0.00191966,0.00168257,0.00143953,0.00119089,0.00093704,0.000678395,0.000415412,0.000148581,-0.000121569,-0.000394469,-0.000669515,-0.000946066,-0.00122344,-0.00150093,-0.00177779,-0.00205323,-0.00232645,-0.00259661,-0.00286284,-0.00312427,-0.00338,-0.00362912,-0.00387069,-0.00410381,-0.00432753,-0.00454093,-0.00474312,-0.00493318,-0.00511026,-0.00527349,-0.00542206,-0.0055552,-0.00567217,-0.00577229,-0.00585493,-0.00591952,-0.00596555,-0.0059926,-0.00600029,-0.00598836,-0.00595661,-0.00590492,-0.00583328,-0.00574179,-0.00563061,-0.00550003,-0.00535045,-0.00518238,-0.00499644,-0.00479338,-0.00457408,-0.00433955,-0.00409096,-0.00382963,-0.00355706,-0.00327491,-0.0029851,-0.00268973,-0.0023912,-0.00209218,-0.0017957,-0.00150515,-0.00122439,-0.000957773,-0.000710223,-0.000487345,-0.000295507,-0.000141967,-3.5003e-05,1.5919e-05,-0
-0,0.000161276,0.000378124,0.000637866,0.000929529,0.00124371,0.0015724,0.00190887,0.00224747,0.00258354,0.00291325,0.00323351,0.00354184,0.00383631,0.00411544,0.00437813,0.0046236,0.00485134,0.00506106,0.00525267,0.0054262,0.00558181,0.00571977,0.00584039,0.00594406,0.00603119,0.00610222,0.0061576,0.0061978,0.00622327,0.00623445,0.00623178,0.00621566,0.0061865,0.00614465,0.00609047,0.00602427,0.00594636,0.005857,0.00575644,0.00564492,0.00552265,0.00538981,0.0052466,0.00509318,0.00492971,0.00475634,0.00457322,0.00438052,0.00417838,0.00396697,0.00374647,0.00351707,0.00327897,0.0030324,0.00277762,0.00251491,0.00224457,0.00196694,0.0016824,0.00139137,0.00109428,0.000791642,0.000483978,0.000171866,-0.000144077,-0.000463188,-0.000784763,-0.00110805,-0.00143227,-0.00175658,-0.00208012,-0.00240198,-0.00272121,-0.00303686,-0.0033479,-0.00365333,-0.0039521,-0.00424315,-0.00452541,-0.0047978,-0.00505925,-0.00530869,-0.00554506,-0.00576733,-0.00597448,-0.00616553,-0.00633954,-0.0064956,-0.00663287,-0.00675055,-0.00684792,-0.00692431,-0.00697915,-0.00701192,-0.00702223,-0.00700975,-0.00697425,-0.00691561,-0.00683383,-0.006729,-0.00660134,-0.00645119,-0.00627902,-0.00608541,-0.00587111,-0.00563699,-0.00538407,-0.00511355,-0.00482676,-0.00452524,-0.00421072,-0.00388513,-0.00355063,-0.00320964,-0.00286487,-0.00251932,-0.00217636,-0.00183978,-0.00151378,-0.00120311,-0.000913082,-0.00064968,-0.000419634,-0.000230529,-9.09194e-05,-1.04587e-05,-0
-0,0.000218579,0.000491372,0.000805953,0.00115146,0.0015185,0.00189901,0.00228612,0.00267405,0.00305798,0.00343392,0.00379861,0.00414945,0.00448436,0.00480176,0.00510045,0.00537958,0.0056386,0.00587717,0.00609517,0.00629263,0.00646974,0.00662674,0.006764,0.00688192,0.00698096,0.00706161,0.00712435,0.0071697,0.00719816,0.00721023,0.00720638,0.00718708,0.00715276,0.00710383,0.0070407,0.00696371,0.00687321,0.00676951,0.00665289,0.00652361,0.00638191,0.00622803,0.00606216,0.00588451,0.00569525,0.00549458,0.00528267,0.0050597,0.00482585,0.00458132,0.00432632,0.00406107,0.00378581,0.00350081,0.00320637,0.00290281,0.00259049,0.00226981,0.0019412,0.00160514,0.00126215,0.000912792,0.000557692,0.000197507,-0.000167051,-0.000535219,-0.000906187,-0.0012791,-0.00165304,-0.00202706,-0.00240016,-0.0027713,-0.00313941,-0.00350336,-0.00386201,-0.00421419,-0.0045587,-0.00489432,-0.00521984,-0.00553402,-0.00583563,-0.00612344,-0.00639625,-0.00665287,-0.00689213,-0.00711292,-0.00731415,-0.00749479,-0.00765387,-0.00779048,-0.00790379,-0.00799305,-0.00805759,-0.00809685,-0.00811034,-0.0080977,-0.00805869,-0.00799316,-0.00790112,-0.00778267,-0.00763808,-0.00746773,-0.00727217,-0.00705209,-0.00680832,-0.00654189,-0.00625396,-0.0059459,-0.00561925,-0.00527576,-0.00491739,-0.00454633,-0.00416501,-0.00377616,-0.00338278,-0.00298823,-0.00259621,-0.00221085,-0.00183673,-0.00147894,-0.00114316,-0.000835706,-0.000563614,-0.000334737,-0.000157827,-4.26417e-05,-0
-0,0.000282931,0.000617939,0.0009929,0.00139713,0.00182132,0.0022574,0.00269846,0.00313864,0.00357301,0.00399746,0.00440863,0.00480379,0.00518078,0.00553791,0.00587392,0.0061879,0.00647925,0.00674762,0.00699286,0.00721501,0.00741424,0.00759084,0.00774519,0.00787772,0.00798895,0.00807938,0.00814956,0.00820005,0.0082314,0.00824415,0.00823884,0.00821597,0.00817603,0.00811947,0.00804674,0.00795823,0.00785432,0.00773536,0.00760167,0.00745354,0.00729125,0.00711506,0.0069252,0.0067219,0.00650536,0.00627581,0.00603344,0.00577846,0.0055111,0.00523156,0.0049401,0.00463697,0.00432246,0.00399686,0.00366053,0.00331383,0.00295719,0.00259104,0.00221589,0.00183229,0.00144084,0.00104217,0.000636987,0.00022605,-0.000189833,-0.000609795,-0.00103291,-0.00145822,-0.00188467,-0.00231119,-0.00273664,-0.00315985,-0.00357959,-0.0039946,-0.00440358,-0.00480519,-0.00519809,-0.00558089,-0.00595221,-0.00631064,-0.00665481,-0.00698332,-0.00729479,-0.00758789,-0.0078613,-0.00811374,-0.00834399,-0.00855089,-0.00873332,-0.00889027,-0.0090208,-0.00912404,-0.00919924,-0.00924577,-0.00926308,-0.00925077,-0.00920856,-0.00913628,-0.00903395,-0.00890169,-0.0087398,-0.00854873,-0.0083291,-0.00808168,-0.00780745,-0.00750755,-0.00718331,-0.00683628,-0.00646819,-0.00608102,-0.00567696,-0.00525846,-0.00482825,-0.00438932,-0.00394502,-0.003499,-0.00305532,-0.00261844,-0.00219327,-0.00178526,-0.0014004,-0.0010453,-0.000727275,-0.000454383,-0.000235519,-8.04817e-05,-0
-0,0.000354123,0.000757484,0.00119829,0.00166609,0.0021517,0.00264713,0.00314546,0.00364081,0.00412819,0.00460343,0.00506309,0.00550436,0.005925,0.00632327,0.00669786,0.00704781,0.00737249,0.00767153,0.00794477,0.00819226,0.00841419,0.00861085,0.00878267,0.00893012,0.00905372,0.00915405,0.00923171,0.00928728,0.00932138,0.0093346,0.00932752,0.00930069,0.00925465,0.00918991,0.00910694,0.00900618,0.00888806,0.00875296,0.00860124,0.00843322,0.00824922,0.00804952,0.00783439,0.00760408,0.00735884,0.0070989,0.00682449,0.00653586,0.00623325,0.00591691,0.00558713,0.00524419,0.00488842,0.00452016,0.00413982,0.0037478,0.00334457,0.00293066,0.00250663,0.00207308,0.0016307,0.00118022,0.000722417,0.00025815,-0.000211669,-0.000686066,-0.001164,-0.00164438,-0.00212605,-0.00260777,-0.0030883,-0.00356629,-0.00404037,-0.00450913,-0.00497109,-0.00542478,-0.00586867,-0.0063012,-0.00672083,-0.00712598,-0.0075151,-0.00788661,-0.00823898,-0.00857071,-0.00888031,-0.00916635,-0.00942745,-0.00966231,-0.00986969,-0.0100484,-0.0101975,-0.0103159,-0.0104028,-0.0104574,-0.0104793,-0.0104679,-0.0104228,-0.010344,-0.0102315,-0.0100853,-0.00990581,-0.00969358,-0.00944926,-0.00917375,-0.00886813,-0.00853368,-0.00817191,-0.00778452,-0.00737348,-0.00694096,-0.00648942,-0.00602156,-0.00554039,-0.0050492,-0.00455164,-0.00405169,-0.00355372,-0.00306253,-0.00258336,-0.00212196,-0.00168463,-0.00127825,-0.000910356,-0.000589189,-0.00032374,-0.00012381,-0
-0,0.000431945,0.000909652,0.00142168,0.00195785,0.00250913,0.00306766,0.00362659,0.00418004,0.00472301,0.00525131,0.00576145,0.00625059,0.00671645,0.00715724,0.00757161,0.00795859,0.00831753,0.00864804,0.00894999,0.00922342,0.00946855,0.00968569,0.0098753,0.0100379,0.010174,0.0102843,0.0103694,0.01043,0.0104667,0.0104801,0.010471,0.0104398,0.0103872,0.0103137,0.0102199,0.0101062,0.00997304,0.00982095,0.00965027,0.00946137,0.00925458,0.00903023,0.00878861,0.00853001,0.00825469,0.00796293,0.00765498,0.00733113,0.00699163,0.00663679,0.00626691,0.00588232,0.00548339,0.00507051,0.00464412,0.00420469,0.00375275,0.00328887,0.00281369,0.00232789,0.00183223,0.00132753,0.000814657,0.000294573,-0.000231707,-0.000763095,-0.00129844,-0.0018365,-0.00237601,-0.00291559,-0.00345383,-0.00398926,-0.00452034,-0.00504549,-0.00556308,-0.00607146,-0.00656891,-0.00705373,-0.00752417,-0.00797849,-0.00841493,-0.00883178,-0.00922731,-0.00959982,-0.00994769,-0.0102693,-0.0105631,-0.0108277,-0.0110617,-0.0112637,-0.0114327,-0.0115675,-0.0116672,-0.0117309,-0.0117581,-0.0117482,-0.0117008,-0.0116158,-0.0114931,-0.0113329,-0.0111357,-0.0109019,-0.0106324,-0.0103281,-0.00999023,-0.00962022,-0.00921972,-0.00879066,-0.00833517,-0.00785569,-0.00735489,-0.00683575,-0.00630156,-0.00575591,-0.00520273,-0.00464634,-0.00409142,-0.00354308,-0.00300688,-0.00248887,-0.00199562,-0.00153427,-0.00111255,-0.000738842,-0.000422216,-0.000172448,-0
-0,0.000516193,0.00107409,0.00166262,0.00227187,0.00289306,0.00351844,0.00414128,0.00475575,0.0053569,0.00594053,0.00650315,0.00704191,0.00755452,0.00803917,0.0084945,0.00891954,0.00931362,0.00967638,0.0100077,0.0103076,0.0105764,0.0108144,0.011022,0.0111999,0.0113487,0.011469,0.0115616,0.011627,0.0116661,0.0116795,0.0116679,0.011632,0.0115723,0.0114896,0.0113842,0.0112569,0.0111081,0.0109382,0.0107476,0.0105369,0.0103063,0.0100562,0.00978694,0.00949881,0.00919213,0.00886719,0.00852428,0.00816371,0.00778577,0.0073908,0.00697914,0.00655116,0.00610726,0.00564788,0.00517351,0.00468468,0.00418196,0.00366601,0.00313752,0.00259725,0.00204604,0.0014848,0.000914502,0.000336195,-0.000248993,-0.000839857,-0.00143512,-0.00203342,-0.00263334,-0.00323336,-0.00383194,-0.00442742,-0.00501811,-0.00560227,-0.0061781,-0.00674375,-0.00729735,-0.007837,-0.00836076,-0.0088667,-0.0093529,-0.00981743,-0.0102584,-0.0106739,-0.0110622,-0.0114214,-0.0117499,-0.012046,-0.0123083,-0.0125352,-0.0127255,-0.012878,-0.0129917,-0.0130655,-0.0130989,-0.0130912,-0.013042,-0.0129511,-0.0128186,-0.0126445,-0.0124294,-0.0121738,-0.0118785,-0.0115448,-0.0111739,-0.0107673,-0.010327,-0.00985491,-0.00935352,-0.00882545,-0.00827362,-0.00770127,-0.00711197,-0.00650961,-0.00589843,-0.00528303,-0.00466843,-0.00406003,-0.00346371,-0.0028858,-0.00233313,-0.00181306,-0.00133352,-0.000903015,-0.000530667,-0.000226222,-0
-0,0.000606666,0.00125045,0.00192064,0.00260765,0.00330291,0.00399887,0.00468893,0.00536735,0.00602925,0.00667048,0.00728758,0.00787771,0.00843859,0.00896843,0.00946588,0.00992996,0.01036,0.0107558,0.0111171,0.011444,0.0117368,0.0119959,0.0122219,0.0124153,0.0125768,0.0127072,0.0128071,0.0128773,0.0129185,0.0129316,0.0129173,0.0128761,0.012809,0.0127164,0.012599,0.0124574,0.0122921,0.0121036,0.0118924,0.0116589,0.0114035,0.0111266,0.0108286,0.0105098,0.0101706,0.00981116,0.00943194,0.00903324,0.00861539,0.00817876,0.00772371,0.00725067,0.00676008,0.00625242,0.00572823,0.00518809,0.00463264,0.00406259,0.00347871,0.00288184,0.0022729,0.00165289,0.00102287,0.000384005,-0.00026247,-0.00091523,-0.00157287,-0.0022339,-0.00289675,-0.00355977,-0.00422125,-0.00487937,-0.00553228,-0.00617806,-0.00681472,-0.00744025,-0.00805258,-0.0086496,-0.00922922,-0.00978928,-0.0103277,-0.0108423,-0.011331,-0.0117918,-0.0122227,-0.0126216,-0.0129867,-0.0133163,-0.0136087,-0.0138621,-0.0140754,-0.014247,-0.0143758,-0.0144609,-0.0145014,-0.0144967,-0.0144463,-0.0143501,-0.0142079,-0.01402,-0.0137869,-0.0135093,-0.0131879,-0.0128242,-0.0124194,-0.0119753,-0.011494,-0.0109777,-0.0104289,-0.00985063,-0.00924597,-0.00861846,-0.00797193,-0.00731057,-0.00663892,-0.00596189,-0.0052848,-0.00461338,-0.00395377,-0.00331258,-0.00269691,-0.00211434,-0.00157295,-0.00108139,-0.000648825,-0.000284964,-0
-0,0.000703176,0.00143839,0.00219531,0.00296465,0.00373812,0.00450835,0.00526891,0.00601421,0.00673944,0.00744055,0.00811412,0.00875736,0.00936804,0.00994439,0.0104851,0.0109892,0.0114561,0.0118855,0.0122774,0.0126318,0.0129491,0.0132296,0.0134741,0.0136832,0.0138574,0.0139978,0.0141049,0.0141797,0.014223,0.0142355,0.014218,0.0141714,0.0140962,0.0139933,0.0138633,0.0137068,0.0135243,0.0133165,0.0130838,0.0128267,0.0125456,0.012241,0.0119132,0.0115626,0.0111896,0.0107945,0.0103777,0.00993953,0.00948037,0.00900062,0.00850068,0.00798101,0.00744209,0.00688445,0.00630868,0.00571541,0.00510535,0.00447927,0.00383801,0.00318249,0.00251371,0.00183276,0.0011408,0.000439108,-0.000270972,-0.000987994,-0.00171042,-0.00243663,-0.0031649,-0.00389344,-0.00462036,-0.0053437,-0.00606141,-0.00677141,-0.00747152,-0.00815954,-0.00883319,-0.00949019,-0.0101282,-0.010745,-0.011338,-0.0119052,-0.0124441,-0.0129525,-0.0134282,-0.013869,-0.0142729,-0.0146379,-0.0149622,-0.015244,-0.0154817,-0.0156739,-0.0158193,-0.0159168,-0.0159655,-0.0159647,-0.0159139,-0.0158128,-0.0156614,-0.0154599,-0.0152088,-0.0149089,-0.0145611,-0.0141667,-0.0137274,-0.0132449,-0.0127215,-0.0121596,-0.011562,-0.0109318,-0.0102725,-0.0095878,-0.00888186,-0.00815915,-0.00742449,-0.00668313,-0.00594067,-0.00520314,-0.00447698,-0.00376908,-0.00308676,-0.00243784,-0.00183056,-0.00127369,-0.000776445,-0.000348522,-0
-0,0.000805543,0.00163759,0.00248619,0.00334237,0.00419811,0.00504627,0.00588061,0.00669569,0.00748684,0.00825009,0.00898213,0.00968023,0.0103422,0.0109664,0.0115515,0.0120966,0.0126012,0.013065,0.013488,0.0138703,0.0142124,0.0145147,0.0147779,0.0150026,0.0151898,0.01534,0.0154544,0.0155336,0.0155786,0.0155903,0.0155694,0.0155168,0.0154333,0.0153195,0.0151763,0.0150043,0.014804,0.0145761,0.0143212,0.0140396,0.013732,0.0133987,0.0130402,0.0126568,0.0122489,0.011817,0.0113614,0.0108826,0.0103808,0.00985654,0.00931028,0.00874248,0.00815368,0.00754445,0.00691543,0.0062673,0.00560084,0.00491687,0.00421631,0.00350016,0.00276949,0.00202551,0.00126946,0.000502727,-0.000273223,-0.00105682,-0.00184641,-0.00264021,-0.00343637,-0.00423292,-0.00502782,-0.00581893,-0.00660405,-0.00738088,-0.00814707,-0.0089002,-0.00963782,-0.0103574,-0.0110565,-0.0117325,-0.0123828,-0.013005,-0.0135966,-0.014155,-0.0146778,-0.0151628,-0.0156077,-0.0160102,-0.0163684,-0.0166804,-0.0169443,-0.0171587,-0.0173222,-0.0174334,-0.0174914,-0.0174955,-0.017445,-0.0173397,-0.0171795,-0.0169646,-0.0166956,-0.0163733,-0.0159987,-0.0155732,-0.0150986,-0.0145768,-0.0140101,-0.0134014,-0.0127534,-0.0120697,-0.0113539,-0.0106099,-0.00984233,-0.00905582,-0.00825555,-0.00744705,-0.00663623,-0.00582943,-0.00503337,-0.00425521,-0.00350254,-0.00278335,-0.0021061,-0.00147966,-0.000913315,-0.000416762,-0