-0,-0.000722126,-0.00241555,-0.00427505,-0.0057336,-0.00645457,-0.00625474,-0.00504556,-0.00279636,0.000487667,0.00477891,0.0100357,0.0162076,0.0232392,0.0310722,0.0396474,0.0489054,0.0587878,0.0692376,0.0801995,0.0916203,0.103449,0.115636,0.128136,0.140904,0.153897,0.167075,0.180401,0.193838,0.207352,0.220909,0.234478,0.24803,0.261535,0.274967,0.288299,0.301505,0.31456,0.32744,0.340122,0.352583,0.3648,0.376751,0.388414,0.399768,0.41079,0.42146,0.431756,0.441657,0.451142,0.460191,0.468783,0.476897,0.484513,0.491611,0.498171,0.504174,0.509601,0.514433,0.518653,0.522244,0.52519,0.527475,0.529085,0.530007,0.53023,0.529742,0.528536,0.526603,0.523939,0.52054,0.516404,0.511532,0.505927,0.499595,0.492541,0.484778,0.476317,0.467174,0.457367,0.446917,0.435847,0.424184,0.411956,0.399195,0.385936,0.372216,0.358074,0.343553,0.328696,0.313551,0.298165,0.28259,0.266878,0.251082,0.235258,0.219461,0.203749,0.188179,0.17281,0.1577,0.142908,0.12849,0.114505,0.101009,0.0880574,0.0757037,0.0640002,0.0529973,0.0427425,0.0332812,0.0246551,0.0169026,0.0100579,0.00415006,-0.000797765,-0.00476964,-0.0077587,-0.00976962,-0.0108222,-0.0109567,-0.0102416,-0.00878632,-0.00675946,-0.00441822,-0.00214666,-0.000482015,-0
-0.000722126,-0.000971747,-0.00122144,-0.0014475,-0.00141078,-0.000886289,0.000288334,0.00221568,0.00495201,0.00852001,0.0129186,0.0181303,0.024126,0.0308689,0.0383174,0.0464263,0.0551489,0.0644376,0.0742449,0.0845238,0.0952281,0.106313,0.117735,0.129453,0.141425,0.153613,0.165981,0.178492,0.191112,0.203809,0.216551,0.229309,0.242054,0.254759,0.267396,0.27994,0.292366,0.30465,0.316769,0.328699,0.34042,0.351907,0.363141,0.3741,0.384763,0.395109,0.405118,0.41477,0.424045,0.432923,0.441385,0.449411,0.456982,0.464079,0.470684,0.476779,0.482346,0.487368,0.491829,0.495711,0.499001,0.501684,0.503746,0.505175,0.50596,0.50609,0.505557,0.504354,0.502474,0.499914,0.496671,0.492744,0.488136,0.482849,0.476889,0.470264,0.462984,0.455062,0.446512,0.437351,0.427599,0.417278,0.406413,0.395031,0.38316,0.370834,0.358085,0.344951,0.331469,0.317681,0.303629,0.289357,0.27491,0.260338,0.245687,0.231009,0.216354,0.201773,0.187319,0.173044,0.159001,0.145242,0.131818,0.118782,0.106184,0.0940716,0.0824939,0.0714964,0.0611226,0.0514138,0.0424084,0.0341411,0.0266431,0.0199406,0.0140546,0.00899938,0.0047816,0.00139813,-0.00116614,-0.00294143,-0.00397726,-0.00434796,-0.00415949,-0.00355651,-0.00272558,-0.00187971,-0.00118091,-0.000482015
-0.00241671,-0.00122256,-5.31449e-05,0.00111392,0.00241966,0.0040261,0.00607202,0.00866074,0.0118615,0.015715,0.0202396,0.0254368,0.0312952,0.0377943,0.0449066,0.0526,0.0608393,0.0695869,0.0788043,0.0884522,0.0984916,0.108883,0.11959,0.130573,0.141797,0.153226,0.164827,0.176566,0.188412,0.200333,0.212301,0.224287,0.236263,0.248204,0.260082,0.271875,0.283556,0.295104,0.306496,0.317709,0.328721,0.339513,0.350062,0.360348,0.370352,0.380053,0.389432,0.398471,0.407149,0.415449,0.423352,0.43084,0.437895,0.4445,0.450638,0.456292,0.461446,0.466085,0.470194,0.473758,0.476765,0.4792,0.481053,0.482313,0.48297,0.483016,0.482442,0.481244,0.479417,0.476957,0.473864,0.470138,0.465781,0.460798,0.455193,0.448975,0.442154,0.434742,0.426754,0.418205,0.409114,0.399502,0.389392,0.378808,0.367779,0.356333,0.344501,0.332318,0.319817,0.307037,0.294015,0.280792,0.26741,0.253911,0.24034,0.226741,0.213161,0.199645,0.186241,0.172996,0.159956,0.147168,0.13468,0.122535,0.110779,0.0994545,0.0886039,0.0782668,0.0684806,0.0592805,0.0506983,0.0427624,0.035497,0.0289214,0.0230492,0.0178873,0.0134345,0.00967982,0.00660075,0.00416059,0.00230574,0.000962701,3.56716e-05,-0.00059303,-0.00105497,-0.00146953,-0.00188135,-0.0021436
-0.00428262,-0.0014508,0.00111534,0.00353452,0.00594727,0.00849698,0.0113112,0.0144926,0.0181179,0.0222398,0.0268908,0.0320868,0.0378311,0.0441164,0.050928,0.058245,0.0660425,0.0742922,0.0829638,0.0920253,0.101444,0.111187,0.121221,0.131513,0.142031,0.152743,0.163618,0.174625,0.185734,0.196919,0.208149,0.219399,0.230642,0.241854,0.253009,0.264083,0.275054,0.285899,0.296595,0.307122,0.317459,0.327585,0.33748,0.347124,0.356499,0.365585,0.374364,0.382818,0.390928,0.398678,0.406049,0.413026,0.419591,0.425729,0.431424,0.436661,0.441426,0.445703,0.449481,0.452746,0.455485,0.45769,0.459347,0.46045,0.460989,0.460958,0.460349,0.45916,0.457386,0.455026,0.452079,0.448546,0.444431,0.439737,0.434472,0.428642,0.422258,0.415332,0.407877,0.399909,0.391445,0.382505,0.37311,0.363283,0.353049,0.342435,0.331471,0.320185,0.308611,0.296782,0.284733,0.272501,0.260122,0.247636,0.235082,0.222501,0.209934,0.197422,0.185007,0.172731,0.160636,0.148763,0.137154,0.125847,0.114883,0.104299,0.0941307,0.0844129,0.0751772,0.0664529,0.0582658,0.0506384,0.0435887,0.0371298,0.031269,0.0260066,0.0213352,0.0172379,0.0136868,0.0106416,0.00804724,0.00583328,0.00391352,0.00218918,0.00055757,-0.00106937,-0.00273524,-0.00440925
-0.00575627,-0.00141668,0.00242863,0.0059606,0.00933816,0.0127049,0.016186,0.0198851,0.023884,0.0282437,0.0330072,0.0382016,0.0438416,0.0499311,0.0564659,0.0634352,0.0708229,0.0786091,0.0867709,0.0952833,0.104119,0.113252,0.122652,0.132291,0.142141,0.152172,0.162357,0.172669,0.183078,0.19356,0.204088,0.214636,0.22518,0.235695,0.246159,0.256547,0.266838,0.277011,0.287043,0.296915,0.306606,0.316096,0.325367,0.334398,0.343173,0.351673,0.359879,0.367776,0.375346,0.382572,0.389438,0.39593,0.402031,0.407726,0.413003,0.417845,0.422241,0.426178,0.429644,0.432628,0.435118,0.437106,0.438583,0.439541,0.439972,0.439872,0.439236,0.438059,0.43634,0.434079,0.431275,0.42793,0.424048,0.419633,0.414693,0.409235,0.403269,0.396806,0.38986,0.382444,0.374576,0.366274,0.357557,0.348448,0.338968,0.329143,0.318999,0.308564,0.297866,0.286937,0.275807,0.26451,0.253079,0.241549,0.229956,0.218335,0.206724,0.195158,0.183676,0.172314,0.161109,0.150098,0.139316,0.128799,0.11858,0.108692,0.0991664,0.0900309,0.0813127,0.0730353,0.0652195,0.0578821,0.0510356,0.0446876,0.0388398,0.0334874,0.0286178,0.0242096,0.0202312,0.0166399,0.0133807,0.0103859,0.00757582,0.00486177,0.00215164,-0.000641032,-0.00358812,-0.00674959
-0.00650155,-0.00089288,0.00405314,0.00854131,0.0127424,0.0168034,0.02085,0.0249875,0.0293015,0.033859,0.0387104,0.0438917,0.0494263,0.0553274,0.0615996,0.0682405,0.0752419,0.0825913,0.0902724,0.0982662,0.106552,0.115106,0.123905,0.132925,0.14214,0.151524,0.161053,0.170702,0.180444,0.190256,0.200113,0.209991,0.219866,0.229716,0.239518,0.249251,0.258893,0.268422,0.27782,0.287065,0.296139,0.305022,0.313696,0.322143,0.330345,0.338285,0.345947,0.353313,0.360368,0.367097,0.373484,0.379515,0.385176,0.390453,0.395333,0.399804,0.403853,0.40747,0.410643,0.413363,0.415621,0.417409,0.418718,0.419543,0.419878,0.419718,0.41906,0.417901,0.41624,0.414078,0.411415,0.408253,0.404598,0.400453,0.395826,0.390725,0.38516,0.37914,0.372679,0.365791,0.358491,0.350797,0.342726,0.334298,0.325534,0.316458,0.307092,0.297462,0.287595,0.277517,0.267257,0.256845,0.24631,0.235684,0.224999,0.214285,0.203576,0.192904,0.182302,0.171803,0.161438,0.15124,0.141239,0.131466,0.12195,0.112719,0.103798,0.0952121,0.086982,0.0791267,0.071662,0.0645997,0.0579475,0.0517082,0.0458787,0.0404499,0.0354051,0.0307193,0.0263585,0.0222785,0.0184245,0.0147306,0.0111211,0.00751147,0.00381129,-7.29183e-05,-0.0042383,-0.00879573
-0.00633177,0.000287771,0.00613342,0.0114105,0.0162918,0.0209245,0.0254346,0.0299284,0.0344937,0.0392019,0.0441087,0.0492565,0.0546759,0.0603874,0.0664029,0.0727268,0.079358,0.0862902,0.093513,0.101013,0.108774,0.116778,0.125005,0.133434,0.142043,0.150811,0.159714,0.168729,0.177834,0.187005,0.196221,0.205457,0.214693,0.223907,0.233077,0.242182,0.251202,0.260117,0.268907,0.277553,0.286037,0.29434,0.302444,0.310333,0.317989,0.325396,0.332538,0.3394,0.345966,0.352222,0.358155,0.363749,0.368994,0.373875,0.378381,0.382501,0.386224,0.38954,0.39244,0.394915,0.396957,0.398559,0.399715,0.400419,0.400668,0.400457,0.399784,0.398649,0.397049,0.394987,0.392464,0.389483,0.386049,0.382166,0.377842,0.373086,0.367905,0.362311,0.356316,0.349932,0.343175,0.33606,0.328604,0.320826,0.312744,0.304379,0.295752,0.286888,0.277808,0.268538,0.259103,0.249529,0.239843,0.230072,0.220245,0.21039,0.200534,0.190707,0.180938,0.171253,0.161682,0.152252,0.14299,0.13392,0.125069,0.116458,0.108109,0.100043,0.092275,0.0848203,0.0776899,0.0708911,0.0644275,0.0582974,0.0524942,0.0470047,0.0418092,0.03688,0.0321813,0.0276679,0.0232853,0.0189689,0.014645,0.0102306,0.00563466,0.000757175,-0.00451377,-0.0103113
-0.00515066,0.00223556,0.00878045,0.0146785,0.0200969,0.0251799,0.0300515,0.0348176,0.0395672,0.0443739,0.0492976,0.0543852,0.0596727,0.0651863,0.0709437,0.0769554,0.0832259,0.0897543,0.0965356,0.103561,0.110819,0.118295,0.125974,0.133838,0.141868,0.150045,0.158348,0.166757,0.175252,0.18381,0.19241,0.201033,0.209656,0.21826,0.226824,0.235328,0.243753,0.252079,0.260288,0.268362,0.276281,0.28403,0.29159,0.298946,0.306082,0.312981,0.319628,0.32601,0.332111,0.337919,0.34342,0.348601,0.353452,0.357959,0.362113,0.365903,0.36932,0.372355,0.374999,0.377246,0.379088,0.380519,0.381536,0.382132,0.382305,0.382053,0.381374,0.380267,0.378733,0.376773,0.37439,0.371587,0.36837,0.364743,0.360714,0.35629,0.351481,0.346297,0.340749,0.33485,0.328613,0.322053,0.315185,0.308026,0.300593,0.292906,0.284984,0.276847,0.268516,0.260013,0.251361,0.242583,0.233702,0.224743,0.21573,0.206687,0.19764,0.188614,0.179632,0.170719,0.161899,0.153196,0.144632,0.136229,0.128006,0.119984,0.112178,0.104605,0.0972766,0.090204,0.0833939,0.0768499,0.0705715,0.0645537,0.0587864,0.0532536,0.0479327,0.0427944,0.0378013,0.0329078,0.0280597,0.0231937,0.0182371,0.0131082,0.00771553,0.00195634,-0.0042867,-0.011152
-0.00291578,0.00501743,0.0120732,0.0184307,0.0242475,0.0296619,0.0347942,0.0397483,0.0446131,0.0494634,0.0543611,0.0593567,0.06449,0.0697917,0.0752841,0.0809827,0.0868965,0.0930294,0.0993807,0.105946,0.112718,0.119685,0.126836,0.134156,0.141629,0.149238,0.156966,0.164793,0.172701,0.18067,0.188681,0.196714,0.20475,0.21277,0.220753,0.228681,0.236536,0.244298,0.251951,0.259476,0.266856,0.274075,0.281116,0.287963,0.294602,0.301017,0.307193,0.313118,0.318778,0.324161,0.329253,0.334043,0.338522,0.342677,0.346499,0.34998,0.35311,0.355882,0.358289,0.360324,0.361982,0.363258,0.364148,0.364648,0.364757,0.364473,0.363795,0.362723,0.361259,0.359404,0.357162,0.354537,0.351533,0.348156,0.344414,0.340315,0.335866,0.331078,0.325961,0.320528,0.314791,0.308762,0.302458,0.295892,0.28908,0.282041,0.27479,0.267346,0.259729,0.251956,0.244049,0.236027,0.227912,0.219723,0.211483,0.203212,0.194933,0.186665,0.178431,0.17025,0.162143,0.15413,0.146228,0.138457,0.130831,0.123367,0.116078,0.108975,0.102067,0.0953603,0.0888592,0.0825634,0.0764691,0.0705684,0.0648481,0.0592899,0.0538694,0.0485556,0.0433104,0.0380881,0.032835,0.0274888,0.0219786,0.016224,0.0101349,0.00360922,-0.0034691,-0.0112344
0.000383128,0.00866957,0.0160643,0.0227302,0.0288136,0.0344452,0.0397399,0.0447989,0.0497093,0.0545461,0.0593724,0.0642406,0.0691933,0.0742646,0.0794804,0.08486,0.0904164,0.0961574,0.102086,0.108202,0.1145,0.120973,0.127613,0.134407,0.141342,0.148404,0.155577,0.162844,0.170187,0.17759,0.185034,0.192501,0.199973,0.207431,0.214856,0.222232,0.22954,0.236762,0.243882,0.250882,0.257746,0.264458,0.271003,0.277365,0.28353,0.289484,0.295213,0.300704,0.305945,0.310923,0.315629,0.32005,0.324177,0.328,0.331511,0.334702,0.337564,0.340091,0.342278,0.344118,0.345608,0.346743,0.34752,0.347937,0.347992,0.347686,0.347017,0.345986,0.344597,0.342851,0.340751,0.338303,0.33551,0.33238,0.328919,0.325135,0.321037,0.316633,0.311933,0.30695,0.301694,0.296177,0.290414,0.284417,0.278201,0.271781,0.265172,0.258391,0.251455,0.244379,0.237182,0.229881,0.222494,0.215039,0.207535,0.199998,0.192448,0.184902,0.177378,0.169893,0.162464,0.155106,0.147835,0.140664,0.133608,0.126676,0.119879,0.113226,0.10672,0.100367,0.0941656,0.0881134,0.0822037,0.0764258,0.0707645,0.0651994,0.0597047,0.0542483,0.0487918,0.0432896,0.037689,0.031929,0.0259408,0.0196464,0.0129583,0.00577835,-0.00200452,-0.0105159
0.00473711,0.013207,0.0207861,0.0276216,0.0338484,0.0395886,0.0449515,0.0500341,0.0549212,0.0596869,0.0643945,0.0690974,0.0738402,0.0786591,0.083583,0.0886341,0.0938286,0.0991774,0.104687,0.110359,0.116193,0.122184,0.128326,0.13461,0.141023,0.147555,0.154191,0.160917,0.167716,0.174573,0.181471,0.188393,0.195321,0.202239,0.209129,0.215974,0.222757,0.229461,0.23607,0.242568,0.248938,0.255166,0.261237,0.267136,0.272849,0.278364,0.283667,0.288746,0.293589,0.298185,0.302525,0.306597,0.310393,0.313905,0.317124,0.320043,0.322656,0.324956,0.326939,0.328601,0.329937,0.330945,0.331622,0.331968,0.331981,0.331661,0.331009,0.330028,0.328718,0.327084,0.32513,0.322859,0.320277,0.31739,0.314205,0.31073,0.306973,0.302943,0.298648,0.2941,0.289309,0.284287,0.279045,0.273595,0.267951,0.262126,0.256133,0.249987,0.243702,0.237293,0.230775,0.224163,0.217471,0.210717,0.203913,0.197077,0.190222,0.183364,0.176517,0.169694,0.16291,0.156177,0.149507,0.14291,0.136396,0.129973,0.123648,0.117426,0.111309,0.105297,0.0993879,0.0935762,0.0878527,0.0822045,0.0766145,0.0710609,0.0655166,0.0599492,0.0543201,0.0485845,0.0426906,0.0365795,0.0301847,0.0234316,0.0162368,0.00850735,0.000139824,-0.00898078
0.0101258,0.0186307,0.0262558,0.0331345,0.0393907,0.0451379,0.0504792,0.0555069,0.0603033,0.0649406,0.0694815,0.0739798,0.0784811,0.0830232,0.087637,0.092347,0.0971717,0.102125,0.107215,0.112448,0.117824,0.123341,0.128996,0.134781,0.140687,0.146704,0.15282,0.159021,0.165294,0.171623,0.177994,0.18439,0.190795,0.197193,0.203568,0.209903,0.216181,0.222388,0.228507,0.234523,0.240421,0.246186,0.251804,0.257261,0.262544,0.26764,0.272538,0.277225,0.281691,0.285926,0.28992,0.293663,0.297148,0.300367,0.303312,0.305978,0.308359,0.31045,0.312246,0.313744,0.314942,0.315837,0.316427,0.316713,0.316694,0.316371,0.315746,0.31482,0.313596,0.312079,0.310271,0.308179,0.305807,0.303162,0.30025,0.297078,0.293656,0.28999,0.286089,0.281964,0.277625,0.27308,0.268341,0.26342,0.258327,0.253074,0.247674,0.242138,0.236479,0.230709,0.224841,0.218888,0.212863,0.206777,0.200645,0.194477,0.188287,0.182085,0.175885,0.169695,0.163528,0.157392,0.151295,0.145247,0.139253,0.133318,0.127446,0.12164,0.115898,0.110218,0.104596,0.0990227,0.093488,0.0879768,0.0824705,0.0769462,0.0713762,0.0657278,0.0599627,0.054037,0.0479005,0.0414965,0.0347615,0.0276249,0.020008,0.0118246,0.00297942,-0.00663122
0.0165224,0.0249318,0.0324797,0.0392872,0.0454679,0.0511273,0.0563621,0.0612603,0.0659006,0.070353,0.0746794,0.078933,0.08316,0.087399,0.0916823,0.0960359,0.100481,0.105032,0.109701,0.114494,0.119415,0.124465,0.129641,0.134937,0.140347,0.145862,0.151471,0.157163,0.162926,0.168744,0.174605,0.180493,0.186393,0.19229,0.198168,0.204012,0.209806,0.215535,0.221184,0.226739,0.232184,0.237505,0.24269,0.247726,0.252598,0.257297,0.261809,0.266125,0.270234,0.274126,0.277794,0.281227,0.28442,0.287364,0.290054,0.292485,0.294651,0.296548,0.298173,0.299523,0.300597,0.301392,0.301909,0.302147,0.302106,0.30179,0.301199,0.300336,0.299204,0.297808,0.296151,0.294239,0.292078,0.289672,0.28703,0.284159,0.281064,0.277755,0.27424,0.270528,0.266626,0.262546,0.258296,0.253886,0.249325,0.244626,0.239796,0.234848,0.229791,0.224636,0.219393,0.214073,0.208686,0.203243,0.197754,0.192227,0.186673,0.181101,0.17552,0.169937,0.16436,0.158796,0.15325,0.147728,0.142233,0.136768,0.131333,0.125928,0.12055,0.115195,0.109854,0.104519,0.0991763,0.0938096,0.0883992,0.0829214,0.0773482,0.0716467,0.0657796,0.059704,0.0533716,0.0467282,0.0397138,0.0322618,0.0242993,0.0157466,0.00651745,-0.00348107
0.0238966,0.0320956,0.0394563,0.0460889,0.052098,0.0575817,0.0626308,0.0673283,0.0717496,0.0759625,0.0800269,0.0839957,0.0879147,0.0918231,0.0957538,0.0997342,0.103786,0.107927,0.11217,0.116522,0.12099,0.125576,0.130278,0.135094,0.140017,0.145041,0.150156,0.155352,0.160618,0.16594,0.171307,0.176703,0.182115,0.187528,0.192927,0.198298,0.203626,0.208896,0.214094,0.219205,0.224216,0.229114,0.233886,0.238518,0.243,0.247319,0.251466,0.255429,0.2592,0.262769,0.266128,0.26927,0.272188,0.274876,0.277328,0.27954,0.281508,0.283227,0.284696,0.285913,0.286877,0.287586,0.288041,0.288242,0.288192,0.287891,0.287343,0.28655,0.285517,0.284247,0.282744,0.281016,0.279066,0.2769,0.274527,0.271951,0.26918,0.266222,0.263085,0.259775,0.256302,0.252674,0.248899,0.244985,0.240942,0.236777,0.2325,0.22812,0.223644,0.219082,0.214442,0.209732,0.20496,0.200135,0.195263,0.190353,0.185411,0.180444,0.175458,0.170457,0.165448,0.160433,0.155417,0.150402,0.145388,0.140376,0.135363,0.130348,0.125325,0.120287,0.115225,0.110127,0.10498,0.099765,0.0944621,0.0890469,0.0834913,0.0777628,0.0718248,0.065636,0.05915,0.0523156,0.0450762,0.0373698,0.029129,0.0202813,0.0107486,0.000448441
0.0322167,0.0401036,0.0471785,0.0535424,0.0592922,0.0645189,0.0693078,0.0737375,0.07788,0.0818002,0.0855565,0.0892006,0.0927778,0.0963273,0.0998824,0.103471,0.107117,0.110837,0.114646,0.118555,0.122569,0.126692,0.130925,0.135266,0.13971,0.144252,0.148883,0.153595,0.158376,0.163216,0.168102,0.173021,0.17796,0.182905,0.187842,0.192757,0.197636,0.202464,0.207228,0.211915,0.21651,0.221002,0.225378,0.229627,0.233735,0.237694,0.241493,0.245122,0.248572,0.251836,0.254905,0.257774,0.260435,0.262883,0.265114,0.267123,0.268908,0.270466,0.271794,0.272892,0.273759,0.274394,0.2748,0.274977,0.274926,0.274651,0.274154,0.273439,0.27251,0.271372,0.270028,0.268485,0.266748,0.264824,0.262717,0.260436,0.257985,0.255374,0.252607,0.249694,0.24664,0.243453,0.240141,0.236711,0.233171,0.229526,0.225786,0.221956,0.218043,0.214055,0.209998,0.205877,0.2017,0.197471,0.193196,0.18888,0.184528,0.180144,0.17573,0.171292,0.166829,0.162345,0.15784,0.153314,0.148765,0.144191,0.139589,0.134953,0.130277,0.125551,0.120764,0.115905,0.110956,0.1059,0.100716,0.0953781,0.0898591,0.0841272,0.0781465,0.0718774,0.0652759,0.0582934,0.0508771,0.0429697,0.0345093,0.0254299,0.0156618,0.00513176
0.0414509,0.0489349,0.0556354,0.0616457,0.0670556,0.0719503,0.0764098,0.0805085,0.084315,0.0878917,0.091295,0.0945752,0.0977768,0.100939,0.104095,0.107272,0.110496,0.113784,0.117152,0.120612,0.124169,0.12783,0.131596,0.135466,0.139437,0.143504,0.14766,0.151897,0.156206,0.160576,0.164994,0.16945,0.173931,0.178423,0.182912,0.187387,0.191832,0.196235,0.200582,0.20486,0.209057,0.213161,0.217159,0.22104,0.224793,0.228409,0.231878,0.23519,0.238337,0.241313,0.244109,0.24672,0.249141,0.251366,0.253392,0.255215,0.256832,0.258242,0.259444,0.260436,0.26122,0.261795,0.262163,0.262325,0.262285,0.262045,0.261608,0.260979,0.260161,0.259159,0.257979,0.256626,0.255104,0.253421,0.251582,0.249593,0.247461,0.245192,0.242792,0.240268,0.237626,0.234873,0.232015,0.229057,0.226008,0.222871,0.219652,0.216358,0.212993,0.209562,0.20607,0.202522,0.19892,0.195269,0.191572,0.187831,0.184049,0.180229,0.17637,0.172474,0.168541,0.16457,0.16056,0.156507,0.15241,0.148263,0.14406,0.139794,0.135457,0.131039,0.126526,0.121905,0.117159,0.112269,0.107212,0.101966,0.0965007,0.0907863,0.084788,0.0784679,0.071784,0.0646911,0.0571398,0.0490773,0.0404471,0.0311896,0.0212425,0.0105413
0.051568,0.0585677,0.0648138,0.0703931,0.0753894,0.0798827,0.0839482,0.0876566,0.091073,0.0942575,0.0972643,0.100142,0.102935,0.105681,0.108413,0.11116,0.113946,0.116789,0.119707,0.12271,0.125808,0.129005,0.132304,0.135706,0.139209,0.142807,0.146496,0.150267,0.154113,0.158023,0.161986,0.165991,0.170026,0.174078,0.178135,0.182183,0.18621,0.190203,0.194149,0.198035,0.20185,0.205581,0.209217,0.212748,0.216163,0.219452,0.222607,0.225619,0.22848,0.231183,0.233723,0.236093,0.238289,0.240307,0.242143,0.243794,0.245259,0.246536,0.247625,0.248525,0.249238,0.249764,0.250106,0.250265,0.250245,0.250049,0.249681,0.249145,0.248445,0.247587,0.246575,0.245414,0.244111,0.242671,0.2411,0.239404,0.237588,0.235659,0.233622,0.231483,0.229247,0.22692,0.224508,0.222015,0.219446,0.216806,0.214098,0.211327,0.208496,0.205609,0.202668,0.199675,0.196634,0.193544,0.190408,0.187226,0.183999,0.180726,0.177405,0.174037,0.170617,0.167145,0.163615,0.160024,0.156366,0.152634,0.148821,0.144918,0.140915,0.1368,0.13256,0.128178,0.123638,0.118919,0.114,0.108857,0.103461,0.0977826,0.0917886,0.0854426,0.0787053,0.0715341,0.0638834,0.0557045,0.0469462,0.0375547,0.0274745,0.0166488
0.062538,0.0689799,0.074699,0.0797767,0.0842917,0.0883192,0.0919305,0.0951927,0.0981679,0.100914,0.103482,0.105921,0.108272,0.110574,0.112858,0.115154,0.117484,0.11987,0.122326,0.124866,0.127499,0.13023,0.133062,0.135998,0.139035,0.14217,0.145397,0.14871,0.152101,0.155561,0.159079,0.162644,0.166245,0.169871,0.173508,0.177144,0.180767,0.184364,0.187923,0.191432,0.19488,0.198254,0.201544,0.20474,0.207832,0.210811,0.213668,0.216395,0.218986,0.221433,0.223732,0.225877,0.227863,0.229688,0.231349,0.232843,0.234169,0.235327,0.236316,0.237137,0.237791,0.23828,0.238607,0.238774,0.238784,0.238641,0.23835,0.237915,0.23734,0.23663,0.235791,0.234829,0.233747,0.232553,0.231252,0.229848,0.228349,0.226758,0.225081,0.223323,0.22149,0.219584,0.217612,0.215576,0.21348,0.211327,0.20912,0.206862,0.204554,0.202199,0.199796,0.197348,0.194853,0.192312,0.189723,0.187086,0.184399,0.181659,0.178864,0.176009,0.17309,0.170103,0.167043,0.163901,0.160672,0.157347,0.153917,0.150371,0.146697,0.142882,0.138913,0.134771,0.13044,0.125898,0.121125,0.116095,0.110781,0.105155,0.0991836,0.0928334,0.086067,0.0788446,0.0711241,0.0628608,0.0540082,0.0445181,0.034341,0.0234271
0.0743324,0.0801497,0.0852756,0.0897868,0.0937579,0.09726,0.100361,0.103125,0.10561,0.107873,0.109963,0.111926,0.113804,0.115633,0.117446,0.119269,0.121128,0.123041,0.125026,0.127094,0.129255,0.131516,0.133881,0.136351,0.138924,0.141599,0.14437,0.147231,0.150175,0.153193,0.156276,0.159412,0.16259,0.1658,0.16903,0.172267,0.175498,0.178714,0.1819,0.185046,0.188141,0.191173,0.194132,0.197008,0.199792,0.202475,0.205049,0.207507,0.209842,0.212049,0.214121,0.216055,0.217846,0.219493,0.220992,0.222343,0.223544,0.224595,0.225497,0.226251,0.226858,0.227322,0.227644,0.227828,0.227878,0.227798,0.227592,0.227265,0.226821,0.226267,0.225607,0.224846,0.22399,0.223045,0.222015,0.220906,0.219722,0.218469,0.217152,0.215774,0.214339,0.212851,0.211313,0.209729,0.2081,0.206428,0.204715,0.202961,0.201168,0.199335,0.197461,0.195546,0.193587,0.191584,0.189532,0.187428,0.18527,0.183052,0.18077,0.178417,0.175989,0.173478,0.170876,0.168176,0.165368,0.162442,0.159388,0.156193,0.152845,0.149328,0.145629,0.141728,0.137608,0.133249,0.128627,0.12372,0.118499,0.112938,0.107006,0.100669,0.0938937,0.0866422,0.0788757,0.0705536,0.0616335,0.0520721,0.0418257,0.0308504
0.0869243,0.0920558,0.0965276,0.100413,0.103782,0.106703,0.109241,0.111457,0.113407,0.115144,0.116718,0.118171,0.119545,0.120874,0.12219,0.123521,0.124891,0.126317,0.127818,0.129405,0.131089,0.132876,0.13477,0.136773,0.138884,0.141102,0.143421,0.145836,0.148339,0.150923,0.153578,0.156294,0.159061,0.161866,0.164699,0.167548,0.170401,0.173247,0.176074,0.17887,0.181626,0.184329,0.186971,0.189541,0.192032,0.194433,0.196739,0.198942,0.201036,0.203015,0.204875,0.206611,0.208222,0.209703,0.211055,0.212275,0.213363,0.21432,0.215147,0.215846,0.216418,0.216866,0.217194,0.217406,0.217505,0.217496,0.217383,0.217171,0.216866,0.216473,0.215997,0.215443,0.214817,0.214123,0.213368,0.212555,0.211689,0.210775,0.209816,0.208816,0.207778,0.206706,0.2056,0.204463,0.203297,0.202101,0.200876,0.199621,0.198336,0.197018,0.195665,0.194276,0.192845,0.19137,0.189846,0.188268,0.186629,0.184925,0.183147,0.181289,0.179342,0.177298,0.175148,0.172882,0.170488,0.167956,0.165273,0.162425,0.159399,0.156179,0.152749,0.149091,0.145185,0.141011,0.136547,0.131769,0.126651,0.121167,0.115285,0.108977,0.102208,0.0949448,0.087151,0.0787895,0.069822,0.0602097,0.0499136,0.0388953
0.100289,0.104678,0.108439,0.111643,0.114357,0.116645,0.118571,0.120192,0.121563,0.122735,0.123755,0.124665,0.125504,0.126307,0.127104,0.127922,0.128784,0.129709,0.130714,0.131811,0.133009,0.134317,0.135737,0.137272,0.138922,0.140684,0.142554,0.144527,0.146596,0.148753,0.150988,0.153293,0.155656,0.158066,0.160514,0.162986,0.165472,0.16796,0.17044,0.172899,0.175328,0.177716,0.180053,0.182331,0.184541,0.186675,0.188726,0.190687,0.192552,0.194318,0.195979,0.197531,0.198974,0.200303,0.201519,0.202621,0.203609,0.204484,0.205247,0.205901,0.206448,0.206892,0.207236,0.207484,0.20764,0.20771,0.207699,0.20761,0.20745,0.207225,0.206938,0.206596,0.206204,0.205766,0.205288,0.204774,0.204227,0.203653,0.203054,0.202432,0.201792,0.201133,0.200458,0.199767,0.19906,0.198337,0.197596,0.196836,0.196054,0.195247,0.194411,0.193541,0.192633,0.191681,0.190678,0.189618,0.188493,0.187295,0.186016,0.184645,0.183174,0.181592,0.179888,0.17805,0.176066,0.173923,0.171607,0.169104,0.166399,0.163474,0.160313,0.156898,0.153208,0.149224,0.144922,0.140279,0.135271,0.129871,0.124051,0.117781,0.111031,0.103769,0.0959619,0.0875751,0.0785743,0.0689246,0.0585915,0.0475412
0.114402,0.117997,0.120996,0.123466,0.125474,0.127082,0.128349,0.129331,0.130082,0.130651,0.131081,0.131415,0.131691,0.131941,0.132195,0.13248,0.132817,0.133226,0.133723,0.134319,0.135025,0.135848,0.13679,0.137856,0.139043,0.140351,0.141775,0.14331,0.144948,0.146684,0.148506,0.150407,0.152375,0.1544,0.156471,0.158577,0.160707,0.162849,0.164992,0.167126,0.16924,0.171325,0.173371,0.175369,0.177311,0.179189,0.180998,0.18273,0.18438,0.185944,0.187418,0.188799,0.190086,0.191275,0.192367,0.193362,0.194261,0.195064,0.195775,0.196395,0.196927,0.197376,0.197744,0.198038,0.198261,0.198418,0.198515,0.198557,0.198549,0.198496,0.198405,0.19828,0.198126,0.197948,0.197751,0.197539,0.197315,0.197082,0.196844,0.196603,0.196359,0.196115,0.19587,0.195624,0.195376,0.195125,0.194867,0.194599,0.194318,0.194019,0.193696,0.193343,0.192954,0.192521,0.192036,0.191491,0.190876,0.19018,0.189395,0.188508,0.187509,0.186384,0.185122,0.183709,0.182132,0.180376,0.178425,0.176265,0.173879,0.171249,0.168358,0.165187,0.161715,0.157922,0.153786,0.149284,0.144391,0.139081,0.133329,0.127106,0.120384,0.113132,0.10532,0.0969173,0.0878918,0.0782125,0.0678487,0.0567709
0.129243,0.131994,0.134182,0.135871,0.137126,0.138007,0.138571,0.138874,0.138965,0.138893,0.138701,0.138428,0.138112,0.137783,0.137472,0.137204,0.136999,0.136877,0.136853,0.136939,0.137144,0.137475,0.137936,0.138529,0.139253,0.140107,0.141086,0.142186,0.143399,0.144718,0.146134,0.147637,0.149218,0.150866,0.15257,0.154319,0.156102,0.157907,0.159725,0.161545,0.163356,0.165149,0.166914,0.168644,0.17033,0.171965,0.173543,0.175058,0.176505,0.177879,0.179179,0.1804,0.181541,0.182602,0.183581,0.184481,0.1853,0.186043,0.18671,0.187305,0.187832,0.188295,0.188697,0.189044,0.189341,0.189594,0.189806,0.189985,0.190135,0.190262,0.190371,0.190468,0.190558,0.190644,0.190732,0.190825,0.190926,0.191038,0.191164,0.191305,0.19146,0.191632,0.191819,0.192019,0.192231,0.192451,0.192676,0.192901,0.19312,0.193328,0.193518,0.193681,0.19381,0.193895,0.193927,0.193895,0.193787,0.193593,0.1933,0.192896,0.192366,0.191698,0.190877,0.189888,0.188716,0.187345,0.185759,0.183941,0.181874,0.179539,0.176919,0.173992,0.17074,0.167141,0.163174,0.158814,0.15404,0.148826,0.143147,0.136976,0.130286,0.12305,0.115239,0.106824,0.0977775,0.088071,0.0776774,0.0665706
0.144791,0.146653,0.147983,0.148846,0.149303,0.149414,0.149235,0.148818,0.148213,0.147465,0.146617,0.145708,0.144772,0.143841,0.142942,0.1421,0.141336,0.140669,0.140111,0.139676,0.139371,0.139204,0.139179,0.139296,0.139555,0.139955,0.140491,0.141158,0.141948,0.142856,0.14387,0.144983,0.146184,0.147462,0.148807,0.150207,0.151652,0.153132,0.154634,0.156149,0.157668,0.159179,0.160675,0.162148,0.163589,0.164992,0.16635,0.167659,0.168913,0.170109,0.171244,0.172316,0.173323,0.174266,0.175143,0.175956,0.176707,0.177397,0.178031,0.178611,0.179141,0.179626,0.18007,0.180478,0.180857,0.18121,0.181545,0.181867,0.182181,0.182493,0.182809,0.183133,0.183471,0.183826,0.184203,0.184605,0.185035,0.185496,0.185989,0.186514,0.187072,0.187662,0.188283,0.188932,0.189605,0.190299,0.191009,0.191728,0.19245,0.193167,0.19387,0.194551,0.195199,0.195804,0.196353,0.196835,0.197237,0.197545,0.197745,0.197824,0.197765,0.197554,0.197174,0.196609,0.195843,0.194859,0.193638,0.192163,0.190416,0.188377,0.186028,0.183348,0.180317,0.176914,0.173117,0.168903,0.16425,0.159134,0.15353,0.147413,0.140758,0.133539,0.12573,0.117304,0.108236,0.0985003,0.0880727,0.0769304
0.161029,0.161958,0.162387,0.16238,0.161998,0.161298,0.160335,0.159161,0.157823,0.156367,0.154832,0.153257,0.151675,0.150117,0.148609,0.147175,0.145835,0.144606,0.143502,0.142535,0.141712,0.141041,0.140523,0.140161,0.139954,0.139899,0.139992,0.140227,0.140599,0.141098,0.141716,0.142443,0.14327,0.144185,0.145179,0.146239,0.147355,0.148517,0.149713,0.150933,0.152168,0.153409,0.154645,0.155871,0.157077,0.158258,0.159407,0.16052,0.161592,0.162619,0.1636,0.164533,0.165415,0.166248,0.167032,0.167769,0.168459,0.169107,0.169715,0.170287,0.170828,0.171343,0.171836,0.172313,0.172779,0.173241,0.173705,0.174176,0.174659,0.175162,0.175689,0.176245,0.176835,0.177464,0.178135,0.17885,0.179614,0.180427,0.18129,0.182204,0.183168,0.184181,0.185239,0.18634,0.187479,0.18865,0.189848,0.191065,0.192293,0.193523,0.194744,0.195947,0.197118,0.198245,0.199316,0.200316,0.20123,0.202044,0.202741,0.203305,0.20372,0.203969,0.204033,0.203896,0.203538,0.202943,0.202089,0.20096,0.199535,0.197794,0.195718,0.193287,0.190478,0.187272,0.183647,0.17958,0.17505,0.170032,0.164504,0.158442,0.151821,0.144618,0.136809,0.128369,0.119274,0.109503,0.099033,0.0878442