-0,-0,-0,-0,-0,-0,-0,-0,-0,-0,-0,-0,-0,-0,-0,-0,-0,-0,-0,-0,-0,-0,-0,-0,-0,-0,-0,-0,-0,-0,-0,-0,-0,-0,-0,-0,-0,-0,-0,-0,-0,-0,-0,-0,-0,-0,-0,-0,-0,-0,-0,-0,-0,-0,-0,-0,-0,-0,-0,-0,-0,-0,-0,-0,-0,-0,-0,-0,-0,-0,-0,-0,-0,-0,-0,-0,-0,-0,-0,-0,-0,-0,-0,-0,-0,-0,-0,-0,-0,-0,-0,-0,-0,-0,-0,-0,-0,-0,-0,-0,-0,-0,-0,-0,-0,-0,-0,-0,-0,-0,-0,-0,-0,-0,-0,-0,-0,-0,-0,-0,-0,-0,-0,-0,-0,-0,-0,-0
-0,2.89425e-08,1.10188e-07,2.10401e-07,3.02864e-07,3.70229e-07,4.02066e-07,3.92502e-07,3.38611e-07,2.39391e-07,9.51126e-08,-9.31014e-08,-3.23563e-07,-5.94212e-07,-9.02753e-07,-1.24675e-06,-1.62372e-06,-2.03113e-06,-2.4665e-06,-2.92739e-06,-3.41143e-06,-3.91634e-06,-4.4399e-06,-4.98003e-06,-5.5347e-06,-6.10201e-06,-6.68012e-06,-7.26729e-06,-7.86187e-06,-8.46227e-06,-9.06697e-06,-9.67451e-06,-1.02835e-05,-1.08926e-05,-1.15004e-05,-1.21057e-05,-1.27072e-05,-1.33036e-05,-1.38938e-05,-1.44765e-05,-1.50505e-05,-1.56146e-05,-1.61676e-05,-1.67082e-05,-1.72352e-05,-1.77474e-05,-1.82436e-05,-1.87224e-05,-1.91827e-05,-1.96232e-05,-2.00427e-05,-2.04399e-05,-2.08136e-05,-2.11625e-05,-2.14854e-05,-2.17812e-05,-2.20487e-05,-2.22868e-05,-2.24944e-05,-2.26705e-05,-2.28141e-05,-2.29243e-05,-2.30003e-05,-2.30414e-05,-2.30469e-05,-2.30162e-05,-2.29488e-05,-2.28445e-05,-2.2703e-05,-2.25242e-05,-2.23081e-05,-2.20549e-05,-2.1765e-05,-2.14387e-05,-2.10767e-05,-2.06798e-05,-2.02489e-05,-1.97849e-05,-1.92893e-05,-1.87634e-05,-1.82086e-05,-1.76268e-05,-1.70197e-05,-1.63894e-05,-1.57379e-05,-1.50675e-05,-1.43805e-05,-1.36795e-05,-1.2967e-05,-1.22456e-05,-1.15181e-05,-1.07873e-05,-1.0056e-05,-9.3271e-06,-8.60348e-06,-7.88805e-06,-7.18368e-06,-6.49324e-06,-5.81953e-06,-5.16531e-06,-4.53326e-06,-3.92596e-06,-3.34588e-06,-2.79538e-06,-2.27667e-06,-1.79182e-06,-1.34271e-06,-9.31043e-07,-5.58319e-07,-2.25812e-07,6.54437e-08,3.14682e-07,5.21426e-07,6.85528e-07,8.07202e-07,8.87082e-07,9.26283e-07,9.26494e-07,8.90095e-07,8.20325e-07,7.21507e-07,5.99382e-07,4.61566e-07,3.182e-07,1.82749e-07,7.2601e-08,7.68675e-09,-0
-0,1.10291e-07,3.52863e-07,6.33071e-07,8.75634e-07,1.02745e-06,1.0536e-06,9.32563e-07,6.52378e-07,2.07815e-07,-4.01629e-07,-1.17313e-06,-2.10157e-06,-3.18019e-06,-4.4012e-06,-5.75611e-06,-7.23604e-06,-8.83193e-06,-1.05347e-05,-1.23353e-05,-1.4225e-05,-1.61952e-05,-1.82375e-05,-2.03441e-05,-2.25072e-05,-2.47195e-05,-2.69739e-05,-2.92636e-05,-3.15824e-05,-3.39238e-05,-3.62821e-05,-3.86514e-05,-4.10263e-05,-4.34013e-05,-4.57713e-05,-4.81311e-05,-5.04757e-05,-5.28003e-05,-5.50999e-05,-5.73697e-05,-5.9605e-05,-6.18009e-05,-6.39526e-05,-6.60553e-05,-6.81043e-05,-7.00948e-05,-7.20218e-05,-7.38805e-05,-7.56662e-05,-7.73739e-05,-7.89988e-05,-8.05361e-05,-8.19812e-05,-8.33291e-05,-8.45755e-05,-8.57157e-05,-8.67453e-05,-8.76601e-05,-8.8456e-05,-8.91292e-05,-8.96761e-05,-9.00932e-05,-9.03774e-05,-9.05261e-05,-9.05367e-05,-9.04073e-05,-9.01361e-05,-8.9722e-05,-8.91642e-05,-8.84624e-05,-8.76169e-05,-8.66284e-05,-8.54983e-05,-8.42283e-05,-8.28209e-05,-8.12791e-05,-7.96066e-05,-7.78074e-05,-7.58865e-05,-7.38492e-05,-7.17014e-05,-6.94497e-05,-6.71012e-05,-6.46634e-05,-6.21444e-05,-5.9553e-05,-5.6898e-05,-5.4189e-05,-5.14357e-05,-4.86483e-05,-4.58373e-05,-4.30132e-05,-4.01868e-05,-3.73692e-05,-3.45714e-05,-3.18043e-05,-2.90789e-05,-2.64061e-05,-2.37965e-05,-2.12607e-05,-1.88087e-05,-1.64504e-05,-1.41952e-05,-1.20519e-05,-1.00289e-05,-8.13408e-06,-6.3744e-06,-4.75629e-06,-3.28531e-06,-1.96617e-06,-8.02613e-07,2.02653e-07,1.04807e-06,1.73337e-06,2.25969e-06,2.62982e-06,2.8484e-06,2.92225e-06,2.8608e-06,2.67659e-06,2.38601e-06,2.01022e-06,1.57631e-06,1.11871e-06,6.80452e-07,3.13157e-07,7.24537e-08,-0
-0,2.10981e-07,6.34133e-07,1.09443e-06,1.45671e-06,1.62294e-06,1.52581e-06,1.12184e-06,3.85444e-07,-6.9576e-07,-2.12446e-06,-3.89632e-06,-6.0019e-06,-8.42817e-06,-1.11596e-05,-1.41789e-05,-1.74679e-05,-2.10077e-05,-2.47793e-05,-2.87636e-05,-3.2942e-05,-3.72961e-05,-4.18081e-05,-4.64607e-05,-5.12373e-05,-5.6122e-05,-6.10993e-05,-6.61544e-05,-7.12732e-05,-7.6442e-05,-8.16477e-05,-8.68776e-05,-9.21194e-05,-9.73611e-05,-0.000102591,-0.000107798,-0.000112971,-0.000118099,-0.000123171,-0.000128176,-0.000133104,-0.000137943,-0.000142684,-0.000147316,-0.000151828,-0.000156209,-0.000160448,-0.000164536,-0.000168461,-0.000172213,-0.000175781,-0.000179155,-0.000182324,-0.000185279,-0.000188008,-0.000190502,-0.000192752,-0.000194749,-0.000196484,-0.000197947,-0.000199133,-0.000200033,-0.000200641,-0.00020095,-0.000200957,-0.000200656,-0.000200044,-0.000199118,-0.000197878,-0.000196323,-0.000194453,-0.00019227,-0.000189777,-0.000186979,-0.00018388,-0.000180488,-0.000176811,-0.000172857,-0.000168638,-0.000164164,-0.00015945,-0.000154509,-0.000149357,-0.000144011,-0.000138487,-0.000132805,-0.000126985,-0.000121046,-0.000115011,-0.000108901,-0.000102739,-9.65478e-05,-9.03509e-05,-8.41721e-05,-7.80352e-05,-7.19642e-05,-6.59826e-05,-6.01141e-05,-5.43817e-05,-4.8808e-05,-4.3415e-05,-3.82239e-05,-3.32548e-05,-2.85272e-05,-2.40588e-05,-1.98666e-05,-1.59656e-05,-1.23696e-05,-9.09037e-06,-6.13794e-06,-3.52014e-06,-1.24254e-06,6.91864e-07,2.28284e-06,3.53332e-06,4.44974e-06,5.0426e-06,5.32703e-06,5.3236e-06,5.05932e-06,4.56889e-06,3.89619e-06,3.09615e-06,2.23653e-06,1.39933e-06,6.80119e-07,1.82271e-07,-0
-0,3.04482e-07,8.79074e-07,1.45971e-06,1.84565e-06,1.88961e-06,1.48808e-06,5.72197e-07,-9.00045e-07,-2.95013e-06,-5.58405e-06,-8.79624e-06,-1.25725e-05,-1.68925e-05,-2.17313e-05,-2.70609e-05,-3.28514e-05,-3.90715e-05,-4.56894e-05,-5.26733e-05,-5.99916e-05,-6.76132e-05,-7.55077e-05,-8.36457e-05,-9.19986e-05,-0.000100539,-0.00010924,-0.000118076,-0.000127023,-0.000136056,-0.000145153,-0.000154292,-0.000163451,-0.000172609,-0.000181746,-0.000190841,-0.000199876,-0.00020883,-0.000217685,-0.000226422,-0.000235021,-0.000243466,-0.000251735,-0.000259812,-0.000267677,-0.000275312,-0.000282698,-0.000289817,-0.00029665,-0.000303178,-0.000309383,-0.000315248,-0.000320753,-0.000325882,-0.000330617,-0.000334941,-0.000338838,-0.000342293,-0.000345289,-0.000347813,-0.000349852,-0.000351393,-0.000352425,-0.000352938,-0.000352924,-0.000352376,-0.000351287,-0.000349654,-0.000347474,-0.000344748,-0.000341476,-0.000337661,-0.00033331,-0.00032843,-0.00032303,-0.000317122,-0.00031072,-0.00030384,-0.0002965,-0.000288722,-0.000280527,-0.00027194,-0.000262988,-0.0002537,-0.000244106,-0.000234238,-0.00022413,-0.000213817,-0.000203337,-0.000192726,-0.000182024,-0.000171271,-0.000160506,-0.000149771,-0.000139107,-0.000128554,-0.000118152,-0.000107944,-9.79674e-05,-8.82619e-05,-7.88648e-05,-6.98126e-05,-6.11399e-05,-5.28796e-05,-4.50624e-05,-3.77171e-05,-3.08695e-05,-2.45428e-05,-1.87572e-05,-1.35295e-05,-8.87288e-06,-4.7964e-06,-1.30485e-06,1.60184e-06,3.92918e-06,5.68868e-06,6.89867e-06,7.5853e-06,7.78367e-06,7.53932e-06,6.90991e-06,5.96735e-06,4.79997e-06,3.51477e-06,2.23887e-06,1.11912e-06,3.17508e-07,-0
-0,3.73402e-07,1.03415e-06,1.6296e-06,1.89253e-06,1.62549e-06,6.87615e-07,-1.01653e-06,-3.54649e-06,-6.93377e-06,-1.11882e-05,-1.6303e-05,-2.2259e-05,-2.90274e-05,-3.65729e-05,-4.48551e-05,-5.38304e-05,-6.34531e-05,-7.36765e-05,-8.44533e-05,-9.57365e-05,-0.00010748,-0.000119638,-0.000132165,-0.00014502,-0.000158161,-0.000171546,-0.000185137,-0.000198896,-0.000212787,-0.000226775,-0.000240826,-0.000254906,-0.000268982,-0.000283025,-0.000297002,-0.000310884,-0.000324641,-0.000338242,-0.000351659,-0.000364864,-0.000377826,-0.000390518,-0.00040291,-0.000414974,-0.000426682,-0.000438004,-0.000448912,-0.000459379,-0.000469374,-0.000478872,-0.000487843,-0.000496261,-0.000504098,-0.000511329,-0.000517928,-0.00052387,-0.000529131,-0.000533689,-0.000537522,-0.000540611,-0.000542936,-0.000544482,-0.000545234,-0.000545178,-0.000544304,-0.000542604,-0.000540073,-0.000536707,-0.000532505,-0.000527471,-0.00052161,-0.00051493,-0.000507443,-0.000499164,-0.00049011,-0.000480305,-0.000469771,-0.000458538,-0.000446636,-0.0004341,-0.000420967,-0.000407278,-0.000393077,-0.00037841,-0.000363326,-0.000347876,-0.000332113,-0.000316094,-0.000299875,-0.000283515,-0.000267075,-0.000250615,-0.000234197,-0.000217883,-0.000201735,-0.000185814,-0.000170181,-0.000154897,-0.000140019,-0.000125605,-0.00011171,-9.83852e-05,-8.56808e-05,-7.36432e-05,-6.23154e-05,-5.17364e-05,-4.19411e-05,-3.29597e-05,-2.48171e-05,-1.75328e-05,-1.11204e-05,-5.58644e-06,-9.30388e-07,2.85646e-06,5.79183e-06,7.90358e-06,9.23096e-06,9.82622e-06,9.75643e-06,9.10564e-06,7.97737e-06,6.49721e-06,4.81536e-06,3.10863e-06,1.58092e-06,4.61426e-07,-0
-0,4.06991e-07,1.06305e-06,1.5335e-06,1.48787e-06,6.80228e-07,-1.06657e-06,-3.87403e-06,-7.81903e-06,-1.2943e-05,-1.92594e-05,-2.676e-05,-3.54198e-05,-4.52012e-05,-5.6057e-05,-6.79332e-05,-8.0771e-05,-9.45086e-05,-0.000109082,-0.000124427,-0.000140479,-0.000157173,-0.000174448,-0.00019224,-0.000210491,-0.000229141,-0.000248136,-0.000267418,-0.000286936,-0.000306639,-0.000326476,-0.0003464,-0.000366362,-0.000386318,-0.000406223,-0.000426033,-0.000445704,-0.000465195,-0.000484463,-0.000503467,-0.000522165,-0.000540517,-0.000558481,-0.000576017,-0.000593084,-0.000609642,-0.00062565,-0.000641068,-0.000655856,-0.000669974,-0.000683383,-0.000696043,-0.000707917,-0.000718966,-0.000729155,-0.000738446,-0.000746806,-0.000754201,-0.0007606,-0.000765974,-0.000770294,-0.000773536,-0.000775675,-0.000776693,-0.000776571,-0.000775295,-0.000772854,-0.00076924,-0.00076445,-0.000758484,-0.000751345,-0.000743041,-0.000733585,-0.000722995,-0.00071129,-0.000698496,-0.000684645,-0.000669771,-0.000653913,-0.000637116,-0.000619428,-0.000600901,-0.000581593,-0.000561564,-0.00054088,-0.000519609,-0.000497822,-0.000475595,-0.000453005,-0.000430132,-0.000407059,-0.000383869,-0.000360647,-0.000337479,-0.000314453,-0.000291653,-0.000269167,-0.000247079,-0.000225472,-0.000204429,-0.000184028,-0.000164346,-0.000145457,-0.000127427,-0.000110324,-9.42059e-05,-7.91273e-05,-6.51366e-05,-5.22756e-05,-4.05789e-05,-3.00733e-05,-2.07771e-05,-1.26992e-05,-5.83855e-06,-1.82676e-07,4.29318e-06,7.6276e-06,9.87454e-06,1.11052e-05,1.14105e-05,1.09031e-05,9.72053e-06,8.02836e-06,6.02279e-06,3.93354e-06,2.02582e-06,6.01496e-07,-0
-0,3.98766e-07,9.41861e-07,1.12266e-06,5.53509e-07,-1.05597e-06,-3.91649e-06,-8.17368e-06,-1.39204e-05,-2.12068e-05,-3.00494e-05,-4.04375e-05,-5.23397e-05,-6.57084e-05,-8.04835e-05,-9.65961e-05,-0.000113971,-0.000132528,-0.000152186,-0.000172859,-0.000194465,-0.00021692,-0.000240141,-0.000264047,-0.000288559,-0.000313601,-0.000339097,-0.000364975,-0.000391164,-0.000417596,-0.000444205,-0.000470925,-0.000497695,-0.000524452,-0.000551136,-0.00057769,-0.000604054,-0.000630171,-0.000655986,-0.000681443,-0.000706485,-0.000731058,-0.000755106,-0.000778577,-0.000801414,-0.000823563,-0.000844971,-0.000865584,-0.000885348,-0.00090421,-0.000922118,-0.000939019,-0.000954864,-0.000969601,-0.000983183,-0.000995562,-0.00100669,-0.00101653,-0.00102503,-0.00103216,-0.00103788,-0.00104216,-0.00104497,-0.00104628,-0.00104606,-0.00104431,-0.001041,-0.00103613,-0.00102969,-0.00102168,-0.00101211,-0.00100099,-0.000988337,-0.000974171,-0.000958523,-0.000941427,-0.000922924,-0.000903059,-0.000881887,-0.000859465,-0.000835858,-0.000811136,-0.000785374,-0.000758653,-0.000731059,-0.000702683,-0.00067362,-0.000643968,-0.000613831,-0.000583314,-0.000552526,-0.000521578,-0.000490581,-0.00045965,-0.000428899,-0.000398442,-0.000368392,-0.000338862,-0.000309961,-0.000281798,-0.000254478,-0.0002281,-0.000202761,-0.000178552,-0.000155559,-0.00013386,-0.000113526,-9.46211e-05,-7.72005e-05,-6.13092e-05,-4.69823e-05,-3.42437e-05,-2.31051e-05,-1.35647e-05,-5.6062e-06,8.02796e-07,5.71238e-06,9.19227e-06,1.1334e-05,1.22535e-05,1.20937e-05,1.10279e-05,9.26319e-06,7.04362e-06,4.65402e-06,2.42339e-06,7.28713e-07,-0
-0,3.44927e-07,6.55335e-07,3.64318e-07,-9.64934e-07,-3.66158e-06,-7.96573e-06,-1.4044e-05,-2.20029e-05,-3.18997e-05,-4.3752e-05,-5.75458e-05,-7.32418e-05,-9.07812e-05,-0.00011009,-0.000131084,-0.000153668,-0.000177745,-0.000203212,-0.000229963,-0.000257894,-0.000286901,-0.000316878,-0.000347725,-0.00037934,-0.000411627,-0.000444491,-0.000477838,-0.000511579,-0.000545627,-0.000579896,-0.000614304,-0.00064877,-0.000683215,-0.000717562,-0.000751735,-0.000785658,-0.00081926,-0.000852466,-0.000885205,-0.000917406,-0.000948997,-0.000979907,-0.00101007,-0.00103941,-0.00106786,-0.00109535,-0.00112181,-0.00114717,-0.00117137,-0.00119434,-0.00121601,-0.00123631,-0.00125519,-0.00127258,-0.00128842,-0.00130265,-0.00131522,-0.00132608,-0.00133517,-0.00134246,-0.00134789,-0.00135143,-0.00135305,-0.00135272,-0.00135041,-0.00134612,-0.00133982,-0.00133152,-0.0013212,-0.00130889,-0.0012946,-0.00127835,-0.00126016,-0.00124008,-0.00121815,-0.00119442,-0.00116895,-0.00114181,-0.00111307,-0.00108282,-0.00105115,-0.00101814,-0.000983908,-0.000948559,-0.000912208,-0.000874976,-0.000836988,-0.000798376,-0.000759273,-0.000719817,-0.00068015,-0.000640413,-0.00060075,-0.000561307,-0.000522228,-0.000483657,-0.000445737,-0.000408607,-0.000372403,-0.00033726,-0.000303303,-0.000270656,-0.000239433,-0.000209743,-0.000181685,-0.00015535,-0.000130818,-0.000108159,-8.74294e-05,-6.86747e-05,-5.19246e-05,-3.71938e-05,-2.44803e-05,-1.37639e-05,-5.00427e-06,1.86053e-06,6.91662e-06,1.02766e-05,1.20822e-05,1.25076e-05,1.17629e-05,1.00974e-05,7.80415e-06,5.22409e-06,2.75089e-06,8.36713e-07,-0
-0,2.43369e-07,1.94111e-07,-7.62758e-07,-3.10412e-06,-7.19107e-06,-1.32879e-05,-2.15782e-05,-3.21788e-05,-4.51514e-05,-6.05131e-05,-7.82444e-05,-9.82968e-05,-0.000120599,-0.000145062,-0.000171583,-0.000200049,-0.000230341,-0.000262335,-0.000295903,-0.000330919,-0.000367254,-0.000404781,-0.000443375,-0.000482914,-0.000523278,-0.00056435,-0.000606015,-0.000648162,-0.000690684,-0.000733474,-0.00077643,-0.000819451,-0.000862439,-0.000905298,-0.000947934,-0.000990252,-0.00103216,-0.00107357,-0.00111439,-0.00115453,-0.00119391,-0.00123242,-0.00127,-0.00130654,-0.00134197,-0.0013762,-0.00140913,-0.00144069,-0.0014708,-0.00149936,-0.0015263,-0.00155153,-0.00157498,-0.00159657,-0.00161624,-0.00163389,-0.00164948,-0.00166292,-0.00167417,-0.00168317,-0.00168987,-0.00169421,-0.00169616,-0.00169569,-0.00169277,-0.00168737,-0.00167949,-0.00166912,-0.00165626,-0.00164092,-0.00162311,-0.00160288,-0.00158025,-0.00155527,-0.001528,-0.0014985,-0.00146685,-0.00143312,-0.00139741,-0.00135983,-0.00132048,-0.00127948,-0.00123696,-0.00119305,-0.0011479,-0.00110165,-0.00105446,-0.00100648,-0.000957895,-0.000908862,-0.000859556,-0.000810152,-0.000760829,-0.000711764,-0.000663136,-0.000615122,-0.000567895,-0.00052163,-0.000476494,-0.000432649,-0.000390254,-0.000349457,-0.000310402,-0.000273221,-0.000238037,-0.000204961,-0.000174091,-0.000145514,-0.0001193,-9.55034e-05,-7.41617e-05,-5.52935e-05,-3.88967e-05,-2.49474e-05,-1.33977e-05,-4.17352e-06,2.82788e-06,7.74034e-06,1.0732e-05,1.20084e-05,1.18166e-05,1.04489e-05,8.24734e-06,5.60899e-06,2.99167e-06,9.21053e-07,-0
-0,9.30653e-08,-4.47127e-07,-2.27156e-06,-5.8876e-06,-1.16807e-05,-1.99334e-05,-3.08413e-05,-4.45278e-05,-6.10561e-05,-8.04396e-05,-0.000102652,-0.000127632,-0.000155296,-0.000185537,-0.000218234,-0.000253254,-0.000290454,-0.000329688,-0.000370805,-0.000413653,-0.00045808,-0.000503935,-0.000551068,-0.000599333,-0.000648585,-0.000698683,-0.000749491,-0.000800875,-0.000852702,-0.000904847,-0.000957184,-0.00100959,-0.00106195,-0.00111414,-0.00116606,-0.00121757,-0.00126859,-0.00131898,-0.00136865,-0.00141749,-0.00146538,-0.00151222,-0.00155791,-0.00160234,-0.0016454,-0.00168698,-0.00172699,-0.00176533,-0.00180188,-0.00183655,-0.00186924,-0.00189985,-0.00192829,-0.00195447,-0.00197829,-0.00199968,-0.00201855,-0.00203481,-0.00204841,-0.00205927,-0.00206734,-0.00207255,-0.00207486,-0.00207423,-0.00207063,-0.00206403,-0.00205441,-0.00204178,-0.00202614,-0.00200749,-0.00198586,-0.00196129,-0.00193382,-0.00190351,-0.00187042,-0.00183463,-0.00179624,-0.00175534,-0.00171204,-0.00166647,-0.00161876,-0.00156906,-0.0015175,-0.00146427,-0.00140952,-0.00135344,-0.00129622,-0.00123804,-0.0011791,-0.00111962,-0.00105979,-0.000999831,-0.000939952,-0.000880369,-0.000821294,-0.000762942,-0.000705521,-0.00064924,-0.0005943,-0.000540897,-0.00048922,-0.00043945,-0.000391757,-0.0003463,-0.000303228,-0.000262674,-0.000224757,-0.000189581,-0.000157229,-0.000127769,-0.000101245,-7.76805e-05,-5.70745e-05,-3.93997e-05,-2.46008e-05,-1.25917e-05,-3.25336e-06,3.56923e-06,8.07042e-06,1.04873e-05,1.11036e-05,1.02542e-05,8.32985e-06,5.78291e-06,3.13374e-06,9.78677e-07,-0
-0,-1.06312e-07,-1.27094e-06,-4.1692e-06,-9.3293e-06,-1.71531e-05,-2.79347e-05,-4.18767e-05,-5.91044e-05,-7.96786e-05,-0.000103607,-0.000130851,-0.000161339,-0.00019497,-0.000231618,-0.000271141,-0.000313385,-0.000358183,-0.000405365,-0.000454755,-0.000506176,-0.000559448,-0.000614396,-0.000670844,-0.000728619,-0.000787552,-0.000847478,-0.000908233,-0.00096966,-0.0010316,-0.00109391,-0.00115644,-0.00121904,-0.00128157,-0.00134389,-0.00140587,-0.00146737,-0.00152825,-0.00158839,-0.00164765,-0.00170591,-0.00176303,-0.00181889,-0.00187337,-0.00192633,-0.00197765,-0.0020272,-0.00207487,-0.00212052,-0.00216405,-0.00220533,-0.00224423,-0.00228066,-0.00231449,-0.00234562,-0.00237394,-0.00239936,-0.00242176,-0.00244107,-0.00245721,-0.00247008,-0.00247962,-0.00248577,-0.00248846,-0.00248766,-0.00248332,-0.00247542,-0.00246394,-0.00244888,-0.00243023,-0.00240802,-0.00238227,-0.00235302,-0.00232033,-0.00228427,-0.00224491,-0.00220235,-0.0021567,-0.00210807,-0.00205659,-0.00200241,-0.00194569,-0.00188659,-0.0018253,-0.00176201,-0.00169691,-0.00163023,-0.00156217,-0.00149297,-0.00142286,-0.00135208,-0.00128088,-0.0012095,-0.0011382,-0.00106723,-0.000996836,-0.000927276,-0.000858795,-0.000791637,-0.000726041,-0.000662238,-0.000600451,-0.000540892,-0.000483763,-0.000429253,-0.000377535,-0.000328768,-0.000283093,-0.000240631,-0.000201483,-0.000165728,-0.00013342,-0.000104588,-7.92323e-05,-5.73229e-05,-3.87976e-05,-2.35593e-05,-1.14729e-05,-2.36242e-06,3.99209e-06,7.85867e-06,9.55734e-06,9.46474e-06,8.01928e-06,5.72704e-06,3.16865e-06,1.00754e-06,-0
-0,-3.54638e-07,-2.27799e-06,-6.45865e-06,-1.34361e-05,-2.36205e-05,-3.73109e-05,-5.47106e-05,-7.59425e-05,-0.000101061,-0.000130063,-0.000162899,-0.00019948,-0.000239686,-0.000283372,-0.000330373,-0.000380511,-0.000433596,-0.00048943,-0.00054781,-0.000608534,-0.000671395,-0.00073619,-0.000802715,-0.000870772,-0.000940164,-0.0010107,-0.00108219,-0.00115445,-0.0012273,-0.00130056,-0.00137406,-0.00144764,-0.00152112,-0.00159434,-0.00166715,-0.00173938,-0.00181088,-0.0018815,-0.00195107,-0.00201945,-0.0020865,-0.00215205,-0.00221596,-0.00227808,-0.00233827,-0.00239638,-0.00245226,-0.00250578,-0.00255679,-0.00260515,-0.00265073,-0.00269339,-0.002733,-0.00276944,-0.00280259,-0.00283232,-0.00285852,-0.0028811,-0.00289995,-0.00291498,-0.0029261,-0.00293326,-0.00293637,-0.00293539,-0.00293027,-0.00292099,-0.00290752,-0.00288986,-0.00286801,-0.00284199,-0.00281184,-0.0027776,-0.00273934,-0.00269714,-0.00265108,-0.00260129,-0.00254787,-0.00249098,-0.00243076,-0.00236738,-0.00230102,-0.00223189,-0.00216018,-0.00208613,-0.00200996,-0.00193191,-0.00185226,-0.00177125,-0.00168917,-0.00160628,-0.00152288,-0.00143924,-0.00135568,-0.00127247,-0.00118991,-0.00110829,-0.0010279,-0.000949018,-0.000871927,-0.000796894,-0.000724176,-0.000654022,-0.000586666,-0.000522326,-0.000461206,-0.00040349,-0.000349341,-0.000298902,-0.000252292,-0.000209602,-0.000170898,-0.000136214,-0.000105554,-7.88854e-05,-5.61407e-05,-3.72119e-05,-2.19487e-05,-1.01552e-05,-1.58639e-06,4.05592e-06,7.12701e-06,8.04415e-06,7.29187e-06,5.428e-06,3.09062e-06,1.00634e-06,-0
-0,-6.51496e-07,-3.46765e-06,-9.1399e-06,-1.82097e-05,-3.10876e-05,-4.80702e-05,-6.93562e-05,-9.50603e-05,-0.000125226,-0.000159837,-0.000198828,-0.00024209,-0.000289483,-0.00034084,-0.000395971,-0.000454673,-0.000516729,-0.000581914,-0.000649998,-0.000720749,-0.000793933,-0.000869318,-0.000946672,-0.00102577,-0.00110638,-0.00118829,-0.00127128,-0.00135515,-0.00143967,-0.00152466,-0.00160991,-0.00169522,-0.00178041,-0.00186529,-0.00194967,-0.00203337,-0.00211621,-0.00219801,-0.0022786,-0.00235779,-0.00243542,-0.00251131,-0.00258529,-0.00265719,-0.00272684,-0.00279407,-0.00285872,-0.00292062,-0.00297961,-0.00303553,-0.00308822,-0.00313752,-0.0031833,-0.0032254,-0.00326369,-0.00329802,-0.00332828,-0.00335434,-0.00337609,-0.00339342,-0.00340625,-0.00341448,-0.00341805,-0.0034169,-0.00341097,-0.00340023,-0.00338466,-0.00336425,-0.00333901,-0.00330897,-0.00327415,-0.00323463,-0.00319047,-0.00314175,-0.0030886,-0.00303113,-0.00296949,-0.00290383,-0.00283433,-0.00276118,-0.00268459,-0.00260479,-0.00252202,-0.00243653,-0.00234858,-0.00225846,-0.00216647,-0.00207289,-0.00197805,-0.00188227,-0.00178586,-0.00168916,-0.00159251,-0.00149623,-0.00140067,-0.00130615,-0.00121302,-0.00112158,-0.00103217,-0.000945082,-0.00086062,-0.000779068,-0.000700694,-0.00062575,-0.000554469,-0.000487063,-0.000423721,-0.000364608,-0.00030986,-0.000259585,-0.00021386,-0.000172728,-0.000136195,-0.000104229,-7.67563e-05,-5.36604e-05,-3.47765e-05,-1.98896e-05,-8.73064e-06,-9.7253e-07,3.77404e-06,5.96547e-06,6.13055e-06,4.87651e-06,2.89583e-06,9.74274e-07,-0
-0,-9.96281e-07,-4.83843e-06,-1.22109e-05,-2.36482e-05,-3.95532e-05,-6.02134e-05,-8.58162e-05,-0.000116463,-0.000152183,-0.000192941,-0.000238652,-0.000289186,-0.00034438,-0.00040404,-0.000467953,-0.000535886,-0.000607595,-0.000682826,-0.000761321,-0.000842816,-0.00092705,-0.00101376,-0.00110268,-0.00119356,-0.00128615,-0.00138019,-0.00147544,-0.00157166,-0.00166861,-0.00176608,-0.00186382,-0.00196162,-0.00205926,-0.00215652,-0.0022532,-0.00234909,-0.00244397,-0.00253766,-0.00262993,-0.0027206,-0.00280947,-0.00289633,-0.002981,-0.00306327,-0.00314296,-0.00321987,-0.00329382,-0.00336461,-0.00343206,-0.00349599,-0.00355622,-0.00361258,-0.0036649,-0.00371301,-0.00375675,-0.00379597,-0.00383054,-0.0038603,-0.00388514,-0.00390493,-0.00391958,-0.00392898,-0.00393305,-0.00393174,-0.00392497,-0.00391272,-0.00389495,-0.00387167,-0.00384287,-0.00380859,-0.00376888,-0.00372379,-0.00367341,-0.00361785,-0.00355721,-0.00349166,-0.00342133,-0.00334643,-0.00326714,-0.00318368,-0.00309629,-0.00300523,-0.00291076,-0.00281318,-0.00271278,-0.00260989,-0.00250484,-0.00239796,-0.00228961,-0.00218015,-0.00206995,-0.00195939,-0.00184884,-0.00173868,-0.00162929,-0.00152106,-0.00141435,-0.00130953,-0.00120697,-0.00110702,-0.00101,-0.000916249,-0.000826067,-0.00073974,-0.000657536,-0.000579694,-0.000506432,-0.000437938,-0.000374368,-0.000315848,-0.000262467,-0.000214277,-0.000171289,-0.000133472,-0.00010075,-7.29967e-05,-5.00343e-05,-3.163e-05,-1.74923e-05,-7.26642e-06,-5.30566e-07,3.20902e-06,4.52331e-06,4.06637e-06,2.58194e-06,9.10945e-07,-0
-0,-1.38827e-06,-6.38822e-06,-1.5668e-05,-2.97469e-05,-4.9012e-05,-7.37348e-05,-0.000104086,-0.000140147,-0.000181928,-0.000229372,-0.000282369,-0.000340767,-0.000404374,-0.000472971,-0.000546315,-0.000624145,-0.000706185,-0.000792154,-0.00088176,-0.000974711,-0.00107071,-0.00116947,-0.00127069,-0.00137409,-0.00147939,-0.0015863,-0.00169455,-0.00180387,-0.00191399,-0.00202467,-0.00213564,-0.00224665,-0.00235746,-0.00246783,-0.00257752,-0.00268629,-0.00279391,-0.00290015,-0.00300478,-0.00310758,-0.00320831,-0.00330677,-0.00340273,-0.00349596,-0.00358625,-0.00367338,-0.00375715,-0.00383733,-0.00391372,-0.00398612,-0.00405432,-0.00411813,-0.00417736,-0.00423182,-0.00428134,-0.00432574,-0.00436486,-0.00439855,-0.00442666,-0.00444908,-0.00446567,-0.00447633,-0.00448097,-0.00447951,-0.0044719,-0.00445809,-0.00443805,-0.00441177,-0.00437927,-0.00434057,-0.00429574,-0.00424483,-0.00418795,-0.0041252,-0.00405673,-0.00398269,-0.00390327,-0.00381866,-0.00372909,-0.00363481,-0.00353607,-0.00343317,-0.00332641,-0.0032161,-0.0031026,-0.00298626,-0.00286745,-0.00274654,-0.00262394,-0.00250006,-0.0023753,-0.00225009,-0.00212484,-0.002,-0.00187598,-0.00175321,-0.00163211,-0.00151309,-0.00139656,-0.00128292,-0.00117254,-0.00106578,-0.000962998,-0.000864507,-0.00077061,-0.000681581,-0.000597663,-0.000519071,-0.000445984,-0.000378546,-0.00031686,-0.000260989,-0.000210953,-0.00016672,-0.000128213,-9.52978e-05,-6.77862e-05,-4.54287e-05,-2.79123e-05,-1.48564e-05,-5.80855e-06,-2.39412e-07,2.46189e-06,2.99361e-06,2.14759e-06,8.16202e-07,-0
-0,-1.82667e-06,-8.11454e-06,-1.95068e-05,-3.6499e-05,-5.94555e-05,-8.86245e-05,-0.000124153,-0.0001661,-0.000214448,-0.000269116,-0.000329966,-0.000396817,-0.00046945,-0.000547615,-0.000631037,-0.000719426,-0.000812473,-0.000909865,-0.00101128,-0.00111639,-0.00122487,-0.00133639,-0.00145064,-0.00156728,-0.00168601,-0.00180652,-0.00192849,-0.00205164,-0.00217567,-0.00230028,-0.00242519,-0.00255013,-0.00267483,-0.002799,-0.00292239,-0.00304472,-0.00316575,-0.00328521,-0.00340285,-0.00351841,-0.00363165,-0.0037423,-0.00385014,-0.0039549,-0.00405635,-0.00415424,-0.00424834,-0.00433841,-0.00442421,-0.00450552,-0.00458211,-0.00465377,-0.00472028,-0.00478144,-0.00483704,-0.00488691,-0.00493084,-0.00496869,-0.00500028,-0.00502548,-0.00504415,-0.00505618,-0.00506146,-0.0050599,-0.00505145,-0.00503604,-0.00501366,-0.0049843,-0.00494796,-0.00490468,-0.00485452,-0.00479756,-0.00473391,-0.00466368,-0.00458704,-0.00450415,-0.00441522,-0.00432048,-0.00422016,-0.00411456,-0.00400394,-0.00388865,-0.00376901,-0.00364538,-0.00351814,-0.00338768,-0.00325442,-0.00311879,-0.00298122,-0.00284217,-0.00270209,-0.00256145,-0.00242073,-0.0022804,-0.00214094,-0.00200282,-0.00186652,-0.00173248,-0.00160117,-0.00147302,-0.00134846,-0.00122789,-0.0011117,-0.00100026,-0.000893891,-0.000792911,-0.000697592,-0.000608175,-0.000524864,-0.000447822,-0.000377171,-0.000312985,-0.000255291,-0.000204063,-0.000159222,-0.00012063,-8.80864e-05,-6.13286e-05,-4.00236e-05,-2.37667e-05,-1.20764e-05,-4.39011e-06,-5.93154e-08,1.65581e-06,1.59218e-06,6.90066e-07,-0
-0,-2.31065e-06,-1.00146e-05,-2.37219e-05,-4.38965e-05,-7.08727e-05,-0.000104869,-0.000146003,-0.000194303,-0.000249724,-0.000312151,-0.000381418,-0.000457311,-0.000539579,-0.00062794,-0.000722085,-0.00082169,-0.000926415,-0.00103591,-0.00114982,-0.00126779,-0.00138945,-0.00151445,-0.00164242,-0.00177303,-0.00190591,-0.00204073,-0.00217716,-0.00231485,-0.00245348,-0.00259274,-0.00273231,-0.00287188,-0.00301115,-0.00314981,-0.00328758,-0.00342416,-0.00355925,-0.00369258,-0.00382387,-0.00395282,-0.00407916,-0.00420261,-0.00432291,-0.00443976,-0.00455292,-0.00466209,-0.00476703,-0.00486747,-0.00496315,-0.00505382,-0.00513923,-0.00521913,-0.0052933,-0.00536149,-0.00542351,-0.00547912,-0.00552814,-0.00557038,-0.00560566,-0.00563382,-0.00565472,-0.00566823,-0.00567422,-0.00567262,-0.00566334,-0.00564634,-0.00562158,-0.00558904,-0.00554876,-0.00550075,-0.00544509,-0.00538186,-0.00531119,-0.0052332,-0.00514806,-0.00505598,-0.00495717,-0.00485188,-0.00474038,-0.00462297,-0.00449998,-0.00437176,-0.00423867,-0.00410112,-0.00395952,-0.00381431,-0.00366594,-0.00351489,-0.00336164,-0.00320668,-0.00305054,-0.00289371,-0.00273674,-0.00258014,-0.00242443,-0.00227016,-0.00211782,-0.00196794,-0.00182102,-0.00167755,-0.00153799,-0.00140279,-0.0012724,-0.0011472,-0.00102758,-0.000913875,-0.000806396,-0.000705414,-0.000611158,-0.000523815,-0.000443524,-0.000370373,-0.0003044,-0.000245585,-0.000193849,-0.000149051,-0.000110982,-7.93666e-05,-5.38539e-05,-3.40168e-05,-1.9347e-05,-9.25072e-06,-3.04412e-06,5.15868e-08,9.15508e-07,5.32663e-07,-0
-0,-2.83934e-06,-1.20855e-05,-2.83075e-05,-5.19304e-05,-8.32511e-05,-0.000122452,-0.000169615,-0.000224734,-0.000287728,-0.000358448,-0.000436693,-0.000522213,-0.000614722,-0.000713902,-0.00081941,-0.000930886,-0.00104795,-0.00117023,-0.00129732,-0.00142883,-0.00156437,-0.00170354,-0.00184596,-0.00199123,-0.00213897,-0.00228882,-0.00244039,-0.00259333,-0.00274728,-0.00290188,-0.0030568,-0.00321169,-0.00336621,-0.00352005,-0.00367286,-0.00382434,-0.00397415,-0.004122,-0.00426755,-0.00441051,-0.00455056,-0.0046874,-0.00482072,-0.00495023,-0.00507563,-0.00519661,-0.0053129,-0.00542419,-0.00553021,-0.00563068,-0.00572532,-0.00581387,-0.00589606,-0.00597165,-0.0060404,-0.00610207,-0.00615644,-0.00620332,-0.0062425,-0.00627382,-0.0062971,-0.00631221,-0.00631903,-0.00631745,-0.00630739,-0.00628879,-0.00626161,-0.00622585,-0.00618152,-0.00612866,-0.00606734,-0.00599766,-0.00591974,-0.00583373,-0.00573981,-0.00563821,-0.00552916,-0.00541293,-0.00528982,-0.00516016,-0.0050243,-0.00488263,-0.00473556,-0.00458351,-0.00442695,-0.00426636,-0.00410223,-0.00393508,-0.00376544,-0.00359386,-0.00342091,-0.00324714,-0.00307313,-0.00289946,-0.00272672,-0.00255547,-0.00238629,-0.00221975,-0.00205639,-0.00189676,-0.00174138,-0.00159073,-0.00144531,-0.00130555,-0.00117188,-0.00104466,-0.000924253,-0.000810952,-0.000705017,-0.00060666,-0.000516039,-0.00043326,-0.000358373,-0.000291365,-0.00023216,-0.000180615,-0.000136516,-9.95759e-05,-6.94274e-05,-4.56235e-05,-2.76311e-05,-1.48273e-05,-6.49531e-06,-1.81988e-06,1.17646e-07,3.44165e-07,-0