0,0,0,0,0,0,0,0,0,0,0,0,0,0,0,0,0,0,0,0,0,0,0,0,0,0,0,0,0,0,0,0,0,0,0,0,0,0,0,0,0,0,0,0,0,0,0,0,0,0,0,0,0,0,0,0,0,0,0,0,0,0,0,0,0,0,0,0,0,0,0,0,0,0,0,0,0,0,0,0,0,0,0,0,0,0,0,0,0,0,0,0,0,0,0,0,0,0,0,0,0,0,0,0,0,0,0,0,0,0,0,0,0,0,0,0,0,0,0,0,0,0,0,0,0,0,0,0
0,7.00348e-06,2.24068e-05,4.02e-05,5.56028e-05,6.52433e-05,6.69037e-05,5.92178e-05,4.1426e-05,1.31962e-05,-2.55035e-05,-7.44941e-05,-0.000133449,-0.000201942,-0.000279476,-0.000365513,-0.000459489,-0.000560827,-0.000668952,-0.000783292,-0.000903287,-0.00102839,-0.00115808,-0.00129185,-0.00142921,-0.00156969,-0.00171284,-0.00185824,-0.00200548,-0.00215416,-0.00230391,-0.00245437,-0.00260517,-0.00275598,-0.00290648,-0.00305632,-0.00320521,-0.00335282,-0.00349884,-0.00364298,-0.00378492,-0.00392436,-0.00406099,-0.00419451,-0.00432463,-0.00445102,-0.00457338,-0.00469141,-0.0048048,-0.00491324,-0.00501642,-0.00511404,-0.0052058,-0.0052914,-0.00537054,-0.00544294,-0.00550832,-0.00556641,-0.00561696,-0.00565971,-0.00569443,-0.00572092,-0.00573897,-0.00574841,-0.00574908,-0.00574086,-0.00572364,-0.00569735,-0.00566193,-0.00561736,-0.00556367,-0.00550091,-0.00542914,-0.0053485,-0.00525913,-0.00516122,-0.00505502,-0.00494077,-0.00481879,-0.00468942,-0.00455304,-0.00441006,-0.00426092,-0.00410612,-0.00394617,-0.00378161,-0.00361302,-0.003441,-0.00326617,-0.00308917,-0.00291067,-0.00273134,-0.00255186,-0.00237295,-0.00219528,-0.00201957,-0.00184651,-0.00167679,-0.00151108,-0.00135005,-0.00119435,-0.0010446,-0.000901394,-0.000765295,-0.000636838,-0.000516514,-0.000404774,-0.000302024,-0.000208617,-0.000124852,-5.09659e-05,1.28685e-05,6.65527e-05,0.000110069,0.000143491,0.000166994,0.000180873,0.000185563,0.000181661,0.000169963,0.000151512,0.000127649,0.000100095,7.10381e-05,4.32087e-05,1.98855e-05,4.60081e-06,0
0,1.15595e-05,3.32705e-05,5.6136e-05,7.32691e-05,7.95469e-05,7.13577e-05,4.63131e-05,2.97392e-06,-5.93821e-05,-0.000140943,-0.000241504,-0.000360574,-0.000497456,-0.000651309,-0.000821193,-0.00100611,-0.00120501,-0.00141686,-0.0016406,-0.00187519,-0.00211961,-0.00237288,-0.00263402,-0.00290212,-0.00317627,-0.00345562,-0.00373933,-0.00402662,-0.00431671,-0.00460888,-0.0049024,-0.00519658,-0.00549076,-0.00578427,-0.00607648,-0.00636677,-0.00665451,-0.0069391,-0.00721992,-0.00749638,-0.00776787,-0.00803381,-0.00829359,-0.00854661,-0.00879228,-0.00903,-0.00925917,-0.00947919,-0.00968947,-0.00988941,-0.0100784,-0.0102559,-0.0104214,-0.0105742,-0.0107138,-0.0108397,-0.0109514,-0.0110483,-0.0111301,-0.0111963,-0.0112464,-0.0112802,-0.0112972,-0.0112973,-0.0112801,-0.0112455,-0.0111934,-0.0111236,-0.0110362,-0.0109312,-0.0108086,-0.0106688,-0.0105118,-0.010338,-0.0101478,-0.00994169,-0.00972009,-0.00948362,-0.00923296,-0.00896883,-0.00869204,-0.00840343,-0.00810395,-0.00779457,-0.00747635,-0.00715037,-0.0068178,-0.00647981,-0.00613763,-0.00579253,-0.00544579,-0.00509873,-0.00475266,-0.00440892,-0.00406883,-0.00373373,-0.00340492,-0.00308369,-0.00277131,-0.00246899,-0.00217792,-0.00189922,-0.00163397,-0.00138317,-0.00114775,-0.000928553,-0.000726347,-0.000541785,-0.00037542,-0.000227685,-9.88833e-05,1.08228e-05,0.000101429,0.000173108,0.000226229,0.000261386,0.000279434,0.000281527,0.000269176,0.000244309,0.000209348,0.000167296,0.000121814,7.72527e-05,3.85774e-05,1.10861e-05,0
0,1.23311e-05,3.34144e-05,5.24918e-05,6.15958e-05,5.47471e-05,2.75896e-05,-2.28833e-05,-9.85789e-05,-0.000200529,-0.000329084,-0.000484067,-0.000664906,-0.000870732,-0.00110046,-0.00135286,-0.00162657,-0.00192021,-0.00223233,-0.00256147,-0.00290618,-0.00326505,-0.00363666,-0.00401965,-0.0044127,-0.00481453,-0.00522389,-0.00563959,-0.00606046,-0.0064854,-0.00691333,-0.00734319,-0.00777397,-0.00820469,-0.00863438,-0.00906208,-0.00948689,-0.00990788,-0.0103241,-0.0107348,-0.0111389,-0.0115357,-0.0119242,-0.0123036,-0.0126729,-0.0130313,-0.013378,-0.013712,-0.0140325,-0.0143386,-0.0146294,-0.0149042,-0.015162,-0.0154021,-0.0156237,-0.0158258,-0.0160079,-0.0161692,-0.0163089,-0.0164264,-0.0165211,-0.0165925,-0.01664,-0.0166632,-0.0166616,-0.016635,-0.0165831,-0.0165057,-0.0164027,-0.0162741,-0.01612,-0.0159406,-0.0157361,-0.0155068,-0.0152533,-0.014976,-0.0146757,-0.0143531,-0.014009,-0.0136444,-0.0132604,-0.0128581,-0.0124388,-0.0120038,-0.0115545,-0.0110925,-0.0106192,-0.0101364,-0.0096457,-0.00914893,-0.00864787,-0.00814437,-0.00764029,-0.00713753,-0.00663799,-0.00614358,-0.00565617,-0.00517765,-0.00470985,-0.00425458,-0.00381356,-0.0033885,-0.00298099,-0.00259256,-0.00222463,-0.00187852,-0.00155544,-0.00125644,-0.000982467,-0.000734274,-0.000512462,-0.00031744,-0.000149411,-8.35181e-06,0.000106012,0.000194237,0.000257192,0.000296104,0.000312603,0.000308783,0.000287268,0.000251278,0.000204703,0.00015215,9.89598e-05,5.11785e-05,1.55609e-05,0
0,1.03137e-05,2.54013e-05,3.39829e-05,2.76749e-05,1.61971e-07,-5.32254e-05,-0.000135787,-0.000249678,-0.000396114,-0.000575548,-0.000787827,-0.00103233,-0.00130805,-0.00161375,-0.00194794,-0.00230902,-0.00269528,-0.00310497,-0.00353629,-0.00398745,-0.00445666,-0.00494217,-0.00544225,-0.00595522,-0.00647945,-0.00701336,-0.00755539,-0.00810406,-0.00865794,-0.0092156,-0.00977571,-0.0103369,-0.010898,-0.0114575,-0.0120145,-0.0125675,-0.0131154,-0.013657,-0.0141912,-0.0147168,-0.0152326,-0.0157374,-0.0162302,-0.0167098,-0.017175,-0.0176248,-0.0180579,-0.0184732,-0.0188697,-0.0192462,-0.0196017,-0.019935,-0.0202451,-0.0205309,-0.0207915,-0.021026,-0.0212332,-0.0214125,-0.021563,-0.0216838,-0.0217744,-0.0218339,-0.021862,-0.021858,-0.0218217,-0.0217526,-0.0216506,-0.0215156,-0.0213476,-0.0211467,-0.0209131,-0.0206472,-0.0203495,-0.0200205,-0.019661,-0.0192719,-0.018854,-0.0184086,-0.0179369,-0.0174402,-0.0169201,-0.016378,-0.0158157,-0.0152351,-0.0146381,-0.0140266,-0.0134027,-0.0127687,-0.0121268,-0.0114793,-0.0108285,-0.0101768,-0.0095266,-0.00888034,-0.00824044,-0.00760929,-0.00698927,-0.00638272,-0.00579192,-0.00521909,-0.00466636,-0.00413578,-0.00362925,-0.00314861,-0.0026955,-0.00227145,-0.00187779,-0.0015157,-0.00118613,-0.000889807,-0.000627244,-0.000398672,-0.00020404,-4.29805e-05,8.52227e-05,0.000181672,0.0002479,0.000285917,0.000298266,0.000288084,0.000259155,0.000215967,0.000163756,0.000108541,5.72007e-05,1.77264e-05,0
0,6.50936e-06,1.16822e-05,4.68539e-06,-2.2719e-05,-7.67959e-05,-0.000162221,-0.000282335,-0.000439356,-0.000634546,-0.000868382,-0.0011407,-0.0014508,-0.0017976,-0.00217968,-0.00259539,-0.0030429,-0.00352026,-0.00402544,-0.00455636,-0.00511093,-0.00568706,-0.00628268,-0.00689574,-0.00752426,-0.00816627,-0.00881987,-0.00948322,-0.0101545,-0.010832,-0.011514,-0.0121988,-0.0128849,-0.0135705,-0.0142543,-0.0149347,-0.0156101,-0.0162792,-0.0169404,-0.0175924,-0.0182336,-0.0188627,-0.0194783,-0.020079,-0.0206633,-0.0212299,-0.0217774,-0.0223045,-0.0228096,-0.0232916,-0.023749,-0.0241805,-0.0245849,-0.0249608,-0.0253071,-0.0256225,-0.0259059,-0.0261562,-0.0263723,-0.0265532,-0.0266981,-0.0268061,-0.0268764,-0.0269084,-0.0269016,-0.0268554,-0.0267695,-0.0266437,-0.026478,-0.0262722,-0.0260267,-0.0257416,-0.0254175,-0.0250549,-0.0246545,-0.0242173,-0.0237443,-0.0232366,-0.0226957,-0.022123,-0.0215202,-0.020889,-0.0202314,-0.0195494,-0.0188452,-0.0181211,-0.0173795,-0.0166229,-0.0158539,-0.0150753,-0.0142897,-0.0134999,-0.0127089,-0.0119195,-0.0111345,-0.0103568,-0.00958942,-0.00883506,-0.00809655,-0.00737661,-0.00667788,-0.0060029,-0.00535411,-0.00473379,-0.00414411,-0.00358704,-0.00306437,-0.00257771,-0.00212842,-0.00171764,-0.00134623,-0.00101477,-0.000723542,-0.000472465,-0.000261103,-8.86137e-05,4.62871e-05,0.000145366,0.00021092,0.00024582,0.000253564,0.000238327,0.000205003,0.000159259,0.000107611,5.75757e-05,1.80332e-05,0
0,1.61059e-06,-5.86052e-06,-3.21904e-05,-8.5028e-05,-0.000170273,-0.000292361,-0.000454479,-0.000658741,-0.000906339,-0.00119769,-0.00153254,-0.00191013,-0.00232924,-0.00278832,-0.00328556,-0.00381893,-0.00438628,-0.00498534,-0.0056138,-0.00626929,-0.00694946,-0.00765197,-0.00837449,-0.00911473,-0.00987047,-0.0106395,-0.0114197,-0.012209,-0.0130053,-0.0138068,-0.0146113,-0.0154171,-0.0162223,-0.0170251,-0.0178236,-0.0186163,-0.0194012,-0.0201768,-0.0209412,-0.0216929,-0.0224302,-0.0231514,-0.0238548,-0.0245389,-0.025202,-0.0258424,-0.0264586,-0.0270491,-0.0276121,-0.0281461,-0.0286497,-0.0291213,-0.0295594,-0.0299627,-0.0303297,-0.0306592,-0.0309498,-0.0312003,-0.0314097,-0.0315769,-0.0317009,-0.031781,-0.0318163,-0.0318063,-0.0317504,-0.0316482,-0.0314996,-0.0313044,-0.0310627,-0.0307747,-0.0304407,-0.0300613,-0.0296372,-0.0291693,-0.0286586,-0.0281063,-0.0275138,-0.0268827,-0.0262147,-0.0255117,-0.0247757,-0.0240091,-0.0232141,-0.0223932,-0.0215492,-0.0206848,-0.0198028,-0.0189063,-0.0179984,-0.0170822,-0.0161609,-0.0152378,-0.0143163,-0.0133995,-0.0124909,-0.0115937,-0.0107112,-0.00984659,-0.00900297,-0.00818338,-0.00739075,-0.00662785,-0.00589733,-0.00520164,-0.00454305,-0.00392362,-0.00334518,-0.00280929,-0.00231725,-0.00187004,-0.00146833,-0.00111244,-0.00080228,-0.000537379,-0.000316804,-0.000139141,-2.45725e-06,9.5744e-05,0.000158561,0.000189739,0.000193709,0.00017564,0.000141494,9.81321e-05,5.34968e-05,1.69727e-05,0
0,-3.94105e-06,-2.58897e-05,-7.4243e-05,-0.000155753,-0.000275705,-0.000438097,-0.000645796,-0.000900677,-0.00120375,-0.00155528,-0.0019549,-0.0024017,-0.00289433,-0.00343111,-0.00401006,-0.00462898,-0.00528552,-0.00597722,-0.00670154,-0.0074559,-0.0082377,-0.00904435,-0.00987327,-0.0107219,-0.0115879,-0.0124686,-0.0133617,-0.0142648,-0.0151757,-0.0160922,-0.017012,-0.0179329,-0.018853,-0.01977,-0.0206821,-0.0215871,-0.0224831,-0.0233682,-0.0242404,-0.0250978,-0.0259385,-0.0267606,-0.0275622,-0.0283415,-0.0290966,-0.0298257,-0.0305269,-0.0311985,-0.0318386,-0.0324456,-0.0330176,-0.033553,-0.0340502,-0.0345074,-0.0349233,-0.0352963,-0.035625,-0.035908,-0.0361442,-0.0363323,-0.0364714,-0.0365604,-0.0365987,-0.0365854,-0.0365201,-0.0364024,-0.0362319,-0.0360087,-0.0357328,-0.0354044,-0.0350241,-0.0345924,-0.0341101,-0.0335782,-0.0329979,-0.0323706,-0.0316979,-0.0309815,-0.0302233,-0.0294256,-0.0285905,-0.0277207,-0.0268188,-0.0258876,-0.02493,-0.0239493,-0.0229485,-0.0219311,-0.0209005,-0.0198602,-0.0188139,-0.0177651,-0.0167177,-0.0156752,-0.0146415,-0.0136201,-0.0126148,-0.011629,-0.0106664,-0.00973019,-0.00882374,-0.00795014,-0.00711234,-0.00631308,-0.0055549,-0.00484011,-0.00417075,-0.00354856,-0.00297501,-0.00245119,-0.00197787,-0.00155541,-0.00118375,-0.000862405,-0.000590388,-0.000366209,-0.000187827,-5.26209e-05,4.26529e-05,0.000101892,0.00012969,0.000131383,0.000113116,8.19503e-05,4.60417e-05,1.49363e-05,0
0,-9.86771e-06,-4.74821e-05,-0.000119724,-0.000232259,-0.000389579,-0.000595083,-0.000851186,-0.00115941,-0.00152048,-0.00193445,-0.00240073,-0.00291827,-0.00348555,-0.00410072,-0.00476164,-0.00546594,-0.0062111,-0.00699446,-0.00781329,-0.0086648,-0.00954618,-0.0104546,-0.0113873,-0.0123415,-0.0133145,-0.0143035,-0.015306,-0.0163194,-0.0173411,-0.0183686,-0.0193996,-0.0204315,-0.0214622,-0.0224893,-0.0235105,-0.0245236,-0.0255263,-0.0265166,-0.0274922,-0.028451,-0.0293909,-0.0303097,-0.0312053,-0.0320758,-0.032919,-0.0337328,-0.0345153,-0.0352644,-0.0359782,-0.0366547,-0.037292,-0.0378883,-0.0384417,-0.0389504,-0.0394128,-0.0398272,-0.0401921,-0.0405061,-0.0407677,-0.0409758,-0.0411291,-0.0412267,-0.0412677,-0.0412514,-0.0411772,-0.0410447,-0.0408536,-0.0406038,-0.0402955,-0.039929,-0.0395048,-0.0390235,-0.0384861,-0.0378937,-0.0372475,-0.0365492,-0.0358005,-0.0350033,-0.0341598,-0.0332723,-0.0323434,-0.0313758,-0.0303724,-0.0293364,-0.0282711,-0.0271797,-0.0260659,-0.0249334,-0.0237859,-0.0226273,-0.0214616,-0.0202928,-0.0191249,-0.0179619,-0.0168081,-0.0156673,-0.0145436,-0.013441,-0.0123631,-0.0113139,-0.0102968,-0.00931523,-0.00837249,-0.00747157,-0.00661527,-0.00580611,-0.00504634,-0.00433791,-0.00368241,-0.00308109,-0.00253479,-0.00204396,-0.00160858,-0.00122817,-0.000901734,-0.000627754,-0.000404138,-0.000228197,-9.66143e-05,-5.41178e-06,5.0085e-05,7.52932e-05,7.64363e-05,6.06409e-05,3.60857e-05,1.22136e-05,0
0,-1.59932e-05,-7.00063e-05,-0.000167378,-0.000312589,-0.000509216,-0.000759945,-0.00106663,-0.00143033,-0.00185143,-0.00232966,-0.00286421,-0.00345379,-0.0040967,-0.00479089,-0.00553406,-0.00632366,-0.007157,-0.00803124,-0.00894346,-0.00989068,-0.0108699,-0.0118781,-0.0129123,-0.0139695,-0.0150468,-0.0161412,-0.01725,-0.0183702,-0.0194993,-0.0206344,-0.0217728,-0.0229121,-0.0240497,-0.0251829,-0.0263094,-0.0274266,-0.0285322,-0.0296237,-0.0306988,-0.0317551,-0.0327903,-0.0338021,-0.0347881,-0.0357461,-0.0366738,-0.0375689,-0.0384294,-0.0392528,-0.0400372,-0.0407804,-0.0414803,-0.0421348,-0.0427421,-0.0433001,-0.0438071,-0.0442612,-0.0446609,-0.0450045,-0.0452906,-0.0455178,-0.045685,-0.045791,-0.0458349,-0.0458159,-0.0457335,-0.0455872,-0.0453767,-0.045102,-0.0447632,-0.0443606,-0.0438949,-0.0433668,-0.0427773,-0.0421276,-0.0414192,-0.0406536,-0.0398329,-0.0389591,-0.0380346,-0.0370619,-0.0360437,-0.0349832,-0.0338834,-0.0327476,-0.0315795,-0.0303827,-0.0291611,-0.0279186,-0.0266593,-0.0253874,-0.0241072,-0.0228231,-0.0215394,-0.0202604,-0.0189907,-0.0177346,-0.0164963,-0.0152802,-0.0140904,-0.012931,-0.0118058,-0.0107184,-0.00967257,-0.00867142,-0.00771801,-0.00681512,-0.00596518,-0.00517031,-0.00443228,-0.00375247,-0.00313184,-0.00257091,-0.00206973,-0.00162788,-0.00124438,-0.000917714,-0.000645794,-0.000425916,-0.000254748,-0.000128293,-4.18656e-05,9.95671e-06,3.33821e-05,3.54847e-05,2.43109e-05,9.01468e-06,0
0,-2.22047e-05,-9.30305e-05,-0.000216309,-0.000395299,-0.00063259,-0.000930074,-0.00128895,-0.00170978,-0.00219247,-0.00273643,-0.00334053,-0.00400321,-0.00472256,-0.00549631,-0.00632198,-0.00719683,-0.00811799,-0.00908244,-0.0100871,-0.0111288,-0.0122043,-0.0133106,-0.0144442,-0.0156022,-0.0167814,-0.0179786,-0.0191909,-0.0204151,-0.0216484,-0.0228879,-0.0241306,-0.0253739,-0.0266148,-0.0278508,-0.029079,-0.0302969,-0.0315017,-0.032691,-0.0338621,-0.0350124,-0.0361395,-0.0372408,-0.0383139,-0.0393562,-0.0403653,-0.0413387,-0.0422742,-0.0431692,-0.0440216,-0.044829,-0.0455891,-0.0462998,-0.0469589,-0.0475644,-0.0481144,-0.0486069,-0.0490402,-0.0494126,-0.0497225,-0.0499685,-0.0501493,-0.0502638,-0.0503109,-0.0502899,-0.0502002,-0.0500412,-0.0498127,-0.0495147,-0.0491473,-0.0487109,-0.0482062,-0.0476339,-0.0469952,-0.0462914,-0.0455239,-0.0446946,-0.0438056,-0.0428591,-0.0418576,-0.0408039,-0.0397008,-0.0385517,-0.0373599,-0.0361289,-0.0348626,-0.033565,-0.03224,-0.030892,-0.0295253,-0.0281445,-0.0267541,-0.0253588,-0.0239631,-0.022572,-0.02119,-0.0198218,-0.0184721,-0.0171454,-0.0158463,-0.0145789,-0.0133475,-0.0121561,-0.0110084,-0.009908,-0.00885813,-0.00786178,-0.00692161,-0.00603991,-0.00521862,-0.00445925,-0.00376291,-0.00313021,-0.00256132,-0.00205584,-0.00161289,-0.001231,-0.000908097,-0.000641526,-0.000427982,-0.000263509,-0.000143466,-6.24944e-05,-1.44819e-05,7.49574e-06,1.12384e-05,5.4921e-06,0
0,-2.84291e-05,-0.00011626,-0.00026588,-0.00047933,-0.000758179,-0.00110347,-0.0015157,-0.00199483,-0.00254031,-0.00315109,-0.00382571,-0.00456233,-0.00535874,-0.00621248,-0.00712082,-0.00808086,-0.00908951,-0.0101436,-0.0112399,-0.0123749,-0.0135455,-0.0147482,-0.0159796,-0.0172364,-0.0185153,-0.019813,-0.0211262,-0.0224518,-0.0237867,-0.0251277,-0.0264718,-0.0278159,-0.0291573,-0.0304928,-0.0318196,-0.0331349,-0.0344359,-0.0357197,-0.0369837,-0.038225,-0.0394409,-0.0406288,-0.0417859,-0.0429097,-0.0439974,-0.0450466,-0.0460545,-0.0470188,-0.0479368,-0.0488063,-0.0496247,-0.0503897,-0.0510992,-0.0517508,-0.0523426,-0.0528725,-0.0533386,-0.0537391,-0.0540725,-0.0543371,-0.0545316,-0.0546549,-0.0547059,-0.0546836,-0.0545876,-0.0544172,-0.0541723,-0.0538527,-0.0534587,-0.0529908,-0.0524494,-0.0518356,-0.0511505,-0.0503955,-0.0495722,-0.0486826,-0.0477288,-0.0467132,-0.0456385,-0.0445076,-0.0433235,-0.0420898,-0.04081,-0.0394879,-0.0381274,-0.0367329,-0.0353086,-0.033859,-0.0323889,-0.0309028,-0.0294058,-0.0279028,-0.0263986,-0.0248983,-0.023407,-0.0219295,-0.0204709,-0.0190359,-0.0176293,-0.0162558,-0.0149197,-0.0136253,-0.0123767,-0.0111776,-0.0100316,-0.00894177,-0.00791105,-0.00694192,-0.00603649,-0.00519643,-0.00442298,-0.0037169,-0.00307844,-0.00250734,-0.00200279,-0.00156338,-0.00118715,-0.000871503,-0.000613207,-0.000408391,-0.000252513,-0.000140337,-6.59115e-05,-2.2537e-05,-2.73797e-06,1.75636e-06,0
0,-3.46192e-05,-0.000139491,-0.000315639,-0.000563908,-0.000884841,-0.0012786,-0.00174495,-0.0022832,-0.00289227,-0.00357066,-0.00431652,-0.00512766,-0.0060016,-0.00693559,-0.0079267,-0.0089718,-0.0100676,-0.0112108,-0.0123979,-0.0136254,-0.0148898,-0.0161875,-0.0175151,-0.018869,-0.0202457,-0.0216417,-0.0230537,-0.0244784,-0.0259123,-0.0273523,-0.0287951,-0.0302375,-0.0316764,-0.0331087,-0.0345313,-0.0359413,-0.0373355,-0.0387111,-0.0400651,-0.0413946,-0.0426967,-0.0439685,-0.0452071,-0.0464099,-0.0475739,-0.0486964,-0.0497747,-0.0508061,-0.051788,-0.0527177,-0.0535929,-0.0544108,-0.0551693,-0.055866,-0.0564987,-0.0570653,-0.0575637,-0.0579921,-0.0583489,-0.0586323,-0.0588409,-0.0589736,-0.0590291,-0.0590067,-0.0589056,-0.0587252,-0.0584655,-0.0581263,-0.0577077,-0.0572104,-0.0566349,-0.0559822,-0.0552534,-0.0544502,-0.0535742,-0.0526274,-0.0516121,-0.0505308,-0.0493863,-0.0481818,-0.0469204,-0.0456057,-0.0442415,-0.0428318,-0.0413808,-0.039893,-0.0383728,-0.0368251,-0.0352548,-0.0336668,-0.0320662,-0.0304583,-0.0288484,-0.0272416,-0.0256433,-0.0240587,-0.0224931,-0.0209515,-0.0194391,-0.0179606,-0.0165208,-0.0151242,-0.0137751,-0.0124776,-0.0112353,-0.0100517,-0.00892988,-0.00787253,-0.00688193,-0.00595994,-0.00510796,-0.00432689,-0.00361712,-0.00297851,-0.00241037,-0.00191142,-0.00147978,-0.00111298,-0.000807893,-0.000560781,-0.00036724,-0.000222204,-0.000119934,-5.40087e-05,-1.73237e-05,-2.11256e-06,0
0,-4.07444e-05,-0.000162588,-0.000365267,-0.00064847,-0.00101173,-0.00145431,-0.00197521,-0.00257307,-0.00324625,-0.00399275,-0.0048103,-0.00569633,-0.00664805,-0.00766245,-0.00873631,-0.0098663,-0.0110489,-0.0122807,-0.0135579,-0.0148769,-0.0162341,-0.0176256,-0.0190479,-0.0204972,-0.02197,-0.0234625,-0.0249714,-0.0264929,-0.0280237,-0.0295604,-0.0310995,-0.0326377,-0.0341717,-0.0356983,-0.0372142,-0.0387162,-0.0402012,-0.0416661,-0.0431077,-0.0445229,-0.0459087,-0.0472621,-0.0485801,-0.0498597,-0.0510979,-0.0522919,-0.0534387,-0.0545356,-0.0555797,-0.0565684,-0.057499,-0.0583688,-0.0591754,-0.0599164,-0.0605894,-0.0611923,-0.0617229,-0.0621792,-0.0625595,-0.0628621,-0.0630855,-0.0632283,-0.0632895,-0.063268,-0.0631632,-0.0629746,-0.0627018,-0.0623448,-0.0619039,-0.0613795,-0.0607722,-0.0600832,-0.0593136,-0.058465,-0.0575392,-0.0565383,-0.0554646,-0.0543209,-0.0531099,-0.051835,-0.0504995,-0.0491071,-0.0476619,-0.0461679,-0.0446296,-0.0430516,-0.0414387,-0.0397958,-0.0381281,-0.0364408,-0.0347393,-0.0330291,-0.0313155,-0.0296043,-0.0279009,-0.0262109,-0.0245397,-0.0228928,-0.0212755,-0.0196928,-0.0181499,-0.0166514,-0.0152019,-0.0138058,-0.0124669,-0.011189,-0.00997531,-0.00882876,-0.00775184,-0.0067466,-0.00581461,-0.00495695,-0.00417417,-0.00346627,-0.00283271,-0.00227234,-0.00178343,-0.00136365,-0.00101003,-0.000718968,-0.000486256,-0.000307031,-0.000175804,-8.64633e-05,-3.23012e-05,-6.05731e-06,0
0,-4.67852e-05,-0.000185456,-0.000414536,-0.000732608,-0.0011382,-0.0016297,-0.00220532,-0.00286302,-0.00360056,-0.00441542,-0.00530487,-0.00626597,-0.00729556,-0.00839034,-0.00954683,-0.0107614,-0.0120305,-0.0133503,-0.0147169,-0.0161266,-0.0175754,-0.0190596,-0.0205753,-0.0221187,-0.0236859,-0.0252733,-0.0268771,-0.0284937,-0.0301194,-0.0317506,-0.0333839,-0.0350158,-0.0366427,-0.0382613,-0.0398682,-0.0414601,-0.0430336,-0.0445854,-0.0461124,-0.0476113,-0.0490788,-0.0505118,-0.0519072,-0.0532617,-0.0545724,-0.0558362,-0.0570501,-0.0582111,-0.0593162,-0.0603628,-0.0613478,-0.0622688,-0.0631229,-0.0639078,-0.0646209,-0.0652599,-0.0658228,-0.0663073,-0.0667117,-0.0670341,-0.067273,-0.0674271,-0.0674951,-0.067476,-0.0673691,-0.0671739,-0.06689,-0.0665174,-0.0660562,-0.0655071,-0.0648706,-0.0641478,-0.0633401,-0.0624489,-0.0614762,-0.0604241,-0.0592951,-0.0580919,-0.0568176,-0.0554753,-0.0540688,-0.0526018,-0.0510785,-0.0495032,-0.0478805,-0.0462151,-0.0445121,-0.0427766,-0.0410139,-0.0392297,-0.0374293,-0.0356186,-0.0338034,-0.0319893,-0.0301822,-0.0283879,-0.0266122,-0.0248608,-0.0231391,-0.0214527,-0.0198068,-0.0182064,-0.0166563,-0.0151611,-0.013725,-0.0123519,-0.0110453,-0.00980843,-0.00864389,-0.00755398,-0.00654046,-0.00560459,-0.00474711,-0.0039682,-0.00326748,-0.00264397,-0.00209611,-0.00162173,-0.00121803,-0.000881629,-0.000608495,-0.00039401,-0.00023296,-0.000119564,-4.75133e-05,-1.00375e-05,0
0,-5.27298e-05,-0.000208033,-0.00046329,-0.000816024,-0.00126379,-0.00180411,-0.00243439,-0.00315193,-0.00395384,-0.00483708,-0.00579846,-0.00683459,-0.00794198,-0.00911699,-0.0103559,-0.0116548,-0.0130098,-0.014417,-0.0158723,-0.0173718,-0.0189114,-0.0204872,-0.022095,-0.0237311,-0.0253914,-0.027072,-0.0287691,-0.0304789,-0.0321977,-0.0339217,-0.0356473,-0.0373708,-0.0390886,-0.0407973,-0.0424932,-0.0441729,-0.0458329,-0.0474699,-0.0490803,-0.0506609,-0.0522084,-0.0537193,-0.0551904,-0.0566184,-0.0580002,-0.0593325,-0.0606122,-0.0618362,-0.0630014,-0.064105,-0.065144,-0.0661155,-0.0670168,-0.0678454,-0.0685986,-0.0692741,-0.0698695,-0.0703828,-0.0708119,-0.0711551,-0.0714107,-0.0715772,-0.0716535,-0.0716384,-0.0715311,-0.0713312,-0.0710382,-0.0706521,-0.0701731,-0.0696017,-0.0689385,-0.0681846,-0.0673414,-0.0664105,-0.0653937,-0.0642933,-0.0631119,-0.0618522,-0.0605173,-0.0591106,-0.057636,-0.0560972,-0.0544985,-0.0528445,-0.0511399,-0.0493896,-0.0475988,-0.0457729,-0.0439174,-0.042038,-0.0401406,-0.0382311,-0.0363154,-0.0343996,-0.0324899,-0.0305922,-0.0287125,-0.0268569,-0.0250312,-0.023241,-0.0214918,-0.0197891,-0.0181378,-0.0165428,-0.0150086,-0.0135393,-0.0121386,-0.0108101,-0.00955647,-0.00838036,-0.00728371,-0.00626798,-0.00533412,-0.00448251,-0.00371296,-0.00302468,-0.00241631,-0.00188586,-0.00143074,-0.00104777,-0.000733161,-0.000482545,-0.000290997,-0.00015307,-6.28498e-05,-1.40258e-05,0
0,-5.85708e-05,-0.000230275,-0.000511418,-0.000898504,-0.00138815,-0.00197702,-0.00266174,-0.00343891,-0.00430502,-0.00525649,-0.00628961,-0.00740059,-0.00858555,-0.0098405,-0.0111614,-0.0125441,-0.0139846,-0.0154786,-0.0170219,-0.0186104,-0.0202398,-0.021906,-0.0236049,-0.0253324,-0.0270844,-0.0288568,-0.0306457,-0.0324473,-0.0342575,-0.0360725,-0.0378886,-0.039702,-0.041509,-0.0433058,-0.0450889,-0.0468547,-0.0485995,-0.0503198,-0.0520121,-0.0536729,-0.0552987,-0.056886,-0.0584315,-0.0599317,-0.0613834,-0.0627832,-0.0641278,-0.065414,-0.0666387,-0.0677988,-0.0688913,-0.0699133,-0.0708618,-0.0717342,-0.0725278,-0.0732401,-0.0738688,-0.0744116,-0.0748665,-0.0752316,-0.0755051,-0.0756855,-0.0757716,-0.0757623,-0.0756566,-0.075454,-0.0751542,-0.0747569,-0.0742624,-0.0736711,-0.0729839,-0.0722016,-0.0713256,-0.0703577,-0.0692996,-0.0681538,-0.0669227,-0.0656093,-0.0642167,-0.0627484,-0.0612082,-0.0596002,-0.0579287,-0.0561985,-0.0544142,-0.0525812,-0.0507047,-0.0487903,-0.0468436,-0.0448708,-0.0428776,-0.0408704,-0.0388554,-0.0368388,-0.034827,-0.0328262,-0.0308429,-0.0288832,-0.0269531,-0.0250588,-0.023206,-0.0214002,-0.0196469,-0.0179511,-0.0163175,-0.0147507,-0.0132546,-0.0118328,-0.0104886,-0.00922462,-0.00804314,-0.00694586,-0.00593392,-0.00500793,-0.00416792,-0.00341331,-0.00274295,-0.00215506,-0.00164729,-0.00121668,-0.000859692,-0.000572218,-0.000349632,-0.000186818,-7.82374e-05,-1.80048e-05,0
0,-6.43044e-05,-0.000252157,-0.000558842,-0.000979895,-0.00151103,-0.00214805,-0.00288684,-0.00372328,-0.00465326,-0.00567261,-0.00677714,-0.00796262,-0.00922475,-0.0105592,-0.0119617,-0.0134277,-0.014953,-0.0165331,-0.0181636,-0.0198402,-0.0215585,-0.0233142,-0.0251031,-0.0269207,-0.0287631,-0.030626,-0.0325054,-0.0343971,-0.0362972,-0.0382018,-0.0401068,-0.0420085,-0.043903,-0.0457865,-0.0476552,-0.0495055,-0.0513335,-0.0531357,-0.0549084,-0.056648,-0.0583508,-0.0600134,-0.0616321,-0.0632035,-0.0647242,-0.0661906,-0.0675994,-0.0689474,-0.0702312,-0.0714476,-0.0725935,-0.0736659,-0.0746618,-0.0755784,-0.076413,-0.0771629,-0.0778257,-0.0783991,-0.0788809,-0.0792692,-0.0795622,-0.0797582,-0.079856,-0.0798543,-0.0797523,-0.0795493,-0.0792448,-0.0788388,-0.0783313,-0.0777228,-0.0770141,-0.0762061,-0.0753002,-0.074298,-0.0732015,-0.0720129,-0.070735,-0.0693706,-0.0679229,-0.0663956,-0.0647925,-0.0631177,-0.0613758,-0.0595715,-0.0577098,-0.055796,-0.0538355,-0.0518342,-0.0497979,-0.0477327,-0.045645,-0.043541,-0.0414273,-0.0393103,-0.0371967,-0.0350931,-0.033006,-0.0309418,-0.028907,-0.0269079,-0.0249505,-0.0230407,-0.0211842,-0.0193863,-0.0176521,-0.0159862,-0.014393,-0.0128763,-0.0114398,-0.0100862,-0.00881812,-0.0076375,-0.00654574,-0.00554367,-0.00463157,-0.00380909,-0.00307531,-0.0024287,-0.00186714,-0.0013879,-0.00098772,-0.000662759,-0.000408686,-0.000220707,-9.36327e-05,-2.19647e-05,0
0,-6.99286e-05,-0.000273661,-0.00060551,-0.00106008,-0.00163222,-0.0023169,-0.00310926,-0.00400449,-0.00499785,-0.00608461,-0.00726007,-0.00851955,-0.00985835,-0.0112718,-0.0127552,-0.014304,-0.0159134,-0.0175789,-0.0192958,-0.0210596,-0.0228658,-0.02471,-0.0265876,-0.0284944,-0.030426,-0.0323781,-0.0343465,-0.0363271,-0.0383157,-0.0403084,-0.0423009,-0.0442894,-0.04627,-0.0482387,-0.0501916,-0.052125,-0.0540349,-0.0559177,-0.0577695,-0.0595867,-0.0613655,-0.0631023,-0.0647934,-0.0664352,-0.0680242,-0.0695567,-0.0710294,-0.0724388,-0.0737815,-0.0750542,-0.0762537,-0.0773769,-0.0784206,-0.079382,-0.0802583,-0.0810467,-0.0817447,-0.08235,-0.0828601,-0.0832732,-0.0835874,-0.0838009,-0.0839123,-0.0839204,-0.0838243,-0.0836232,-0.0833166,-0.0829043,-0.0823865,-0.0817635,-0.0810361,-0.0802051,-0.079272,-0.0782384,-0.0771062,-0.0758778,-0.0745558,-0.073143,-0.071643,-0.0700592,-0.0683955,-0.0666563,-0.0648462,-0.0629699,-0.0610326,-0.0590397,-0.0569969,-0.0549101,-0.0527853,-0.0506289,-0.0484474,-0.0462472,-0.0440352,-0.0418181,-0.0396028,-0.037396,-0.0352047,-0.0330355,-0.0308952,-0.0287904,-0.0267273,-0.0247122,-0.0227511,-0.0208496,-0.019013,-0.0172463,-0.0155542,-0.0139409,-0.0124101,-0.010965,-0.00960844,-0.00834262,-0.00716922,-0.00608934,-0.0051035,-0.00421162,-0.00341302,-0.00270642,-0.00208995,-0.00156117,-0.00111704,-0.00075402,-0.000468065,-0.000254684,-0.000109016,-2.59021e-05,0
0,-7.54427e-05,-0.000294774,-0.000651385,-0.00113899,-0.00175158,-0.00248335,-0.00332868,-0.0042821,-0.00533823,-0.00649179,-0.00773758,-0.00907044,-0.0104853,-0.0119771,-0.0135408,-0.0151715,-0.0168643,-0.0186143,-0.0204168,-0.0222669,-0.0241601,-0.0260917,-0.0280571,-0.0300518,-0.0320714,-0.0341115,-0.0361678,-0.0382359,-0.0403118,-0.0423911,-0.0444699,-0.0465439,-0.0486092,-0.0506618,-0.0526977,-0.0547129,-0.0567036,-0.0586658,-0.0605958,-0.0624896,-0.0643435,-0.0661537,-0.0679165,-0.0696281,-0.0712849,-0.0728832,-0.0744195,-0.0758903,-0.0772919,-0.0786212,-0.0798746,-0.0810491,-0.0821413,-0.0831484,-0.0840674,-0.0848955,-0.08563,-0.0862686,-0.0868087,-0.0872484,-0.0875856,-0.0878186,-0.0879458,-0.0879661,-0.0878782,-0.0876815,-0.0873754,-0.0869596,-0.0864341,-0.0857994,-0.0850561,-0.084205,-0.0832476,-0.0821854,-0.0810204,-0.0797549,-0.0783914,-0.0769331,-0.0753832,-0.0737454,-0.0720236,-0.0702222,-0.0683459,-0.0663995,-0.0643884,-0.0623181,-0.0601944,-0.0580233,-0.0558111,-0.0535642,-0.0512895,-0.0489936,-0.0466834,-0.0443662,-0.0420488,-0.0397384,-0.0374422,-0.0351672,-0.0329204,-0.0307086,-0.0285385,-0.0264166,-0.0243492,-0.0223423,-0.0204015,-0.0185322,-0.0167392,-0.0150272,-0.0134,-0.0118614,-0.0104143,-0.00906137,-0.00780444,-0.00664494,-0.00558366,-0.0046208,-0.00375595,-0.0029881,-0.00231564,-0.00173638,-0.00124758,-0.000845954,-0.000527741,-0.000288741,-0.000124385,-2.98182e-05,0
0,-8.08467e-05,-0.000315491,-0.00069644,-0.00121655,-0.001869,-0.00264721,-0.00354484,-0.00455575,-0.00567395,-0.00689359,-0.00820898,-0.00961449,-0.0111046,-0.012674,-0.0143172,-0.016029,-0.0178043,-0.019638,-0.0215251,-0.0234607,-0.0254398,-0.0274578,-0.0295098,-0.0315914,-0.0336979,-0.0358248,-0.0379677,-0.0401222,-0.042284,-0.0444489,-0.0466126,-0.048771,-0.0509198,-0.0530551,-0.0551728,-0.0572688,-0.0593392,-0.06138,-0.0633871,-0.0653568,-0.0672851,-0.0691681,-0.071002,-0.0727831,-0.0745074,-0.0761714,-0.0777713,-0.0793035,-0.0807644,-0.0821506,-0.0834586,-0.084685,-0.0858267,-0.0868805,-0.0878434,-0.0887125,-0.0894851,-0.0901586,-0.0907305,-0.0911987,-0.0915611,-0.0918158,-0.0919612,-0.091996,-0.091919,-0.0917294,-0.0914264,-0.0910099,-0.0904797,-0.0898362,-0.0890798,-0.0882116,-0.0872328,-0.086145,-0.08495,-0.0836502,-0.0822481,-0.0807469,-0.0791497,-0.0774603,-0.0756827,-0.0738213,-0.0718808,-0.0698663,-0.0677831,-0.0656368,-0.0634334,-0.061179,-0.0588802,-0.0565436,-0.054176,-0.0517845,-0.0493763,-0.0469585,-0.0445387,-0.042124,-0.0397221,-0.0373401,-0.0349854,-0.0326652,-0.0303865,-0.0281561,-0.0259806,-0.0238663,-0.0218193,-0.0198452,-0.0179491,-0.0161361,-0.0144105,-0.0127762,-0.0112365,-0.00979424,-0.00845177,-0.00721076,-0.00607227,-0.00503681,-0.00410424,-0.00327384,-0.00254426,-0.00191361,-0.00137939,-0.0009386,-0.000587747,-0.000322899,-0.000139754,-3.3718e-05,0