-0,-0,-0,-0,-0,-0,-0,-0,-0,-0,-0,-0,-0,-0,-0,-0,-0,-0,-0,-0,-0,-0,-0,-0,-0,-0,-0,-0,-0,-0,-0,-0,-0,-0,-0,-0,-0,-0,-0,-0,-0,-0,-0,-0,-0,-0,-0,-0,-0,-0,-0,-0,-0,-0,-0,-0,-0,-0,-0,-0,-0,-0,-0,-0,-0,-0,-0,-0,-0,-0,-0,-0,-0,-0,-0,-0,-0,-0,-0,-0,-0,-0,-0,-0,-0,-0,-0,-0,-0,-0,-0,-0,-0,-0,-0,-0,-0,-0,-0,-0,-0,-0,-0,-0,-0,-0,-0,-0,-0,-0,-0,-0,-0,-0,-0,-0,-0,-0,-0,-0,-0,-0,-0,-0,-0,-0,-0,-0
-0,-6.99693e-06,-1.15226e-05,-1.22349e-05,-1.01491e-05,-6.29936e-06,-1.41435e-06,4.02942e-06,9.7226e-06,1.54622e-05,2.11132e-05,2.65859e-05,3.18205e-05,3.67786e-05,4.14364e-05,4.57812e-05,4.98077e-05,5.35167e-05,5.69127e-05,6.00033e-05,6.27981e-05,6.5308e-05,6.75445e-05,6.95197e-05,7.12456e-05,7.27338e-05,7.39955e-05,7.50413e-05,7.58811e-05,7.65237e-05,7.69775e-05,7.72494e-05,7.73458e-05,7.7272e-05,7.70326e-05,7.66311e-05,7.60705e-05,7.53528e-05,7.44794e-05,7.34513e-05,7.22689e-05,7.09321e-05,6.94405e-05,6.77936e-05,6.59905e-05,6.40306e-05,6.1913e-05,5.96372e-05,5.72027e-05,5.46095e-05,5.18577e-05,4.89484e-05,4.58826e-05,4.26624e-05,3.92904e-05,3.577e-05,3.21053e-05,2.83015e-05,2.43644e-05,2.03008e-05,1.61188e-05,1.18269e-05,7.43519e-06,2.95431e-06,-1.6039e-06,-6.22665e-06,-1.09002e-05,-1.56099e-05,-2.03403e-05,-2.50749e-05,-2.97967e-05,-3.44878e-05,-3.91299e-05,-4.3704e-05,-4.81908e-05,-5.25707e-05,-5.68238e-05,-6.09301e-05,-6.48699e-05,-6.86235e-05,-7.21715e-05,-7.54952e-05,-7.85761e-05,-8.13968e-05,-8.39406e-05,-8.6192e-05,-8.81365e-05,-8.97608e-05,-9.10532e-05,-9.20034e-05,-9.26028e-05,-9.28443e-05,-9.27229e-05,-9.22352e-05,-9.13799e-05,-9.01574e-05,-8.85704e-05,-8.66235e-05,-8.43232e-05,-8.16782e-05,-7.86992e-05,-7.53988e-05,-7.17916e-05,-6.78945e-05,-6.37259e-05,-5.93067e-05,-5.46593e-05,-4.98088e-05,-4.47822e-05,-3.96089e-05,-3.43214e-05,-2.89549e-05,-2.35487e-05,-1.81468e-05,-1.27987e-05,-7.56163e-06,-2.50266e-06,2.29793e-06,6.74176e-06,1.07054e-05,1.40299e-05,1.65062e-05,1.7855e-05,1.77049e-05,1.55956e-05,1.11165e-05,4.61016e-06,-0
-0,-2.24068e-05,-3.31965e-05,-3.3196e-05,-2.50433e-05,-1.13009e-05,6.02557e-06,2.54777e-05,4.60215e-05,6.69295e-05,8.76903e-05,0.000107946,0.000127448,0.000146027,0.000163571,0.000180013,0.000195314,0.000209463,0.000222464,0.000234335,0.000245101,0.000254796,0.000263457,0.000271124,0.000277836,0.000283634,0.000288556,0.000292641,0.000295922,0.000298433,0.000300202,0.000301256,0.000301617,0.000301306,0.00030034,0.000298733,0.000296495,0.000293635,0.00029016,0.000286073,0.000281377,0.000276072,0.000270159,0.000263637,0.000256503,0.000248756,0.000240395,0.000231419,0.000221828,0.000211622,0.000200805,0.00018938,0.000177356,0.00016474,0.000151543,0.000137781,0.000123471,0.000108633,9.32912e-05,7.74731e-05,6.12098e-05,4.45361e-05,2.74903e-05,1.01147e-05,-7.54497e-06,-2.54392e-05,-4.35149e-05,-6.17158e-05,-7.99822e-05,-9.82515e-05,-0.000116458,-0.000134535,-0.000152411,-0.000170014,-0.000187272,-0.000204109,-0.000220451,-0.000236222,-0.000251348,-0.000265754,-0.000279367,-0.000292116,-0.000303933,-0.000314752,-0.00032451,-0.000333148,-0.000340613,-0.000346856,-0.000351831,-0.000355501,-0.000357833,-0.000358802,-0.000358389,-0.000356582,-0.000353376,-0.000348774,-0.000342786,-0.00033543,-0.000326732,-0.000316725,-0.000305452,-0.00029296,-0.000279306,-0.000264556,-0.000248782,-0.000232063,-0.000214489,-0.000196157,-0.000177173,-0.000157651,-0.00013772,-0.000117519,-9.72005e-05,-7.69379e-05,-5.69248e-05,-3.73828e-05,-1.85693e-05,-7.87372e-07,1.55996e-05,3.01492e-05,4.23147e-05,5.14161e-05,5.66105e-05,5.68868e-05,5.11527e-05,3.86079e-05,1.98855e-05,-0
-0,-4.02674e-05,-5.60992e-05,-5.22335e-05,-3.356e-05,-4.38796e-06,3.18194e-05,7.24132e-05,0.000115418,0.000159379,0.000203235,0.000246217,0.000287772,0.000327513,0.000365173,0.00040058,0.000433629,0.000464273,0.0004925,0.000518332,0.000541811,0.000562994,0.000581952,0.000598758,0.000613492,0.000626233,0.000637059,0.000646046,0.000653265,0.000658782,0.000662659,0.00066495,0.000665704,0.000664963,0.000662762,0.000659132,0.000654098,0.000647678,0.000639886,0.000630733,0.000620225,0.000608366,0.000595156,0.000580596,0.000564684,0.000547418,0.000528799,0.000508825,0.000487499,0.000464827,0.000440817,0.00041548,0.000388833,0.000360899,0.000331705,0.000301283,0.000269675,0.000236928,0.000203094,0.000168237,0.000132425,9.5736e-05,5.82547e-05,2.00741e-05,-1.87049e-05,-5.79738e-05,-9.76165e-05,-0.00013751,-0.000177524,-0.000217523,-0.000257365,-0.000296901,-0.000335981,-0.000374448,-0.000412145,-0.000448909,-0.00048458,-0.000518995,-0.000551992,-0.000583412,-0.000613099,-0.000640899,-0.000666666,-0.000690258,-0.00071154,-0.000730389,-0.000746687,-0.000760329,-0.000771221,-0.000779281,-0.000784441,-0.000786646,-0.000785855,-0.000782045,-0.000775205,-0.000765343,-0.000752481,-0.00073666,-0.000717936,-0.000696383,-0.000672092,-0.000645169,-0.00061574,-0.000583947,-0.000549948,-0.000513921,-0.000476059,-0.000436577,-0.000395709,-0.000353709,-0.000310858,-0.000267462,-0.000223861,-0.000180432,-0.000137598,-9.58395e-05,-5.57077e-05,-1.78434e-05,1.69993e-05,4.79242e-05,7.38587e-05,9.35188e-05,0.000105389,0.000107748,9.88321e-05,7.7283e-05,4.31876e-05,-0
-0,-5.58212e-05,-7.33572e-05,-6.13774e-05,-2.72986e-05,2.27053e-05,8.36559e-05,0.000151646,0.000223668,0.000297435,0.000371228,0.000443768,0.000514113,0.000581582,0.000645694,0.000706126,0.000762671,0.000815216,0.000863718,0.000908189,0.00094868,0.000985271,0.00101806,0.00104717,0.00107271,0.00109482,0.00111361,0.00112921,0.00114174,0.0011513,0.00115799,0.0011619,0.00116312,0.00116171,0.00115773,0.00115125,0.00114229,0.00113089,0.00111708,0.00110087,0.00108229,0.00106133,0.001038,0.00101231,0.000984257,0.000953836,0.000921054,0.000885913,0.000848421,0.000808591,0.000766441,0.000721995,0.000675286,0.000626356,0.000575255,0.000522045,0.000466798,0.000409598,0.000350542,0.00028974,0.000227313,0.000163397,9.8142e-05,3.17089e-05,-3.57264e-05,-0.000103975,-0.000172837,-0.000242098,-0.000311535,-0.000380913,-0.000449986,-0.000518501,-0.000586198,-0.00065281,-0.000718065,-0.000781687,-0.0008434,-0.000902925,-0.000959988,-0.00101432,-0.00106564,-0.0011137,-0.00115825,-0.00119905,-0.00123586,-0.00126848,-0.0012967,-0.00132036,-0.00133928,-0.00135333,-0.0013624,-0.00136638,-0.00136522,-0.00135888,-0.00134733,-0.00133059,-0.00130871,-0.00128175,-0.00124981,-0.00121302,-0.00117153,-0.00112553,-0.00107525,-0.00102092,-0.000962816,-0.000901253,-0.000836567,-0.000769128,-0.000699343,-0.000627657,-0.000554555,-0.00048057,-0.000406288,-0.000332361,-0.000259514,-0.000188562,-0.000120436,-5.61978e-05,2.91996e-06,5.54838e-05,9.98198e-05,0.000133981,0.000155739,0.00016263,0.000152124,0.000122007,7.10639e-05,-0
-0,-6.56687e-05,-7.97683e-05,-5.45071e-05,2.60911e-07,7.65123e-05,0.000167768,0.000268866,0.000375745,0.000485249,0.000594949,0.000702995,0.000807999,0.000908933,0.00100506,0.00109585,0.00118097,0.00126023,0.00133351,0.00140081,0.00146218,0.00151771,0.00156754,0.00161181,0.0016507,0.00168436,0.00171299,0.00173675,0.00175581,0.00177032,0.00178043,0.00178627,0.00178795,0.00178559,0.00177926,0.00176905,0.00175502,0.00173723,0.00171571,0.00169048,0.00166159,0.00162903,0.00159283,0.00155298,0.0015095,0.00146238,0.00141164,0.00135729,0.00129934,0.00123782,0.00117277,0.00110421,0.00103221,0.000956842,0.00087818,0.000796325,0.00071139,0.00062351,0.000532835,0.000439535,0.000343799,0.000245836,0.000145876,4.41674e-05,-5.90211e-05,-0.000163402,-0.000268668,-0.000374496,-0.000480545,-0.000586459,-0.000691866,-0.000796383,-0.000899615,-0.00100116,-0.00110061,-0.00119754,-0.00129155,-0.0013822,-0.00146909,-0.00155182,-0.00162996,-0.00170314,-0.00177098,-0.00183312,-0.00188922,-0.00193894,-0.00198201,-0.00201816,-0.00204713,-0.00206873,-0.00208279,-0.00208916,-0.00208775,-0.00207849,-0.00206136,-0.0020364,-0.00200365,-0.00196323,-0.00191528,-0.00186001,-0.00179765,-0.00172849,-0.00165285,-0.00157112,-0.0014837,-0.00139108,-0.00129376,-0.00119232,-0.00108738,-0.000979603,-0.000869739,-0.000758597,-0.000647065,-0.000536124,-0.000426861,-0.000320492,-0.000218385,-0.000122088,-3.3367e-05,4.57571e-05,0.00011297,0.000165636,0.000200787,0.000215174,0.000205387,0.000168098,0.000100388,-0
-0,-6.75034e-05,-7.15333e-05,-2.69762e-05,5.41827e-05,0.000162207,0.000289195,0.000428781,0.000575878,0.000726461,0.000877378,0.00102619,0.00117102,0.00131046,0.00144348,0.00156934,0.00168754,0.00179775,0.00189982,0.00199368,0.00207938,0.00215702,0.00222675,0.00228875,0.00234324,0.00239044,0.00243057,0.00246386,0.00249052,0.00251077,0.00252479,0.00253276,0.00253484,0.00253117,0.00252187,0.00250705,0.0024868,0.00246118,0.00243026,0.00239408,0.00235267,0.00230606,0.00225426,0.00219731,0.00213519,0.00206794,0.00199556,0.00191809,0.00183553,0.00174795,0.00165539,0.00155792,0.00145561,0.00134858,0.00123694,0.00112085,0.00100046,0.000875962,0.000747582,0.00061556,0.000480166,0.000341697,0.000200477,5.68597e-05,-8.87773e-05,-0.000236028,-0.000384463,-0.000533627,-0.000683041,-0.000832207,-0.000980607,-0.00112771,-0.00127295,-0.00141578,-0.00155563,-0.00169192,-0.00182406,-0.00195147,-0.00207359,-0.00218984,-0.00229966,-0.00240252,-0.00249789,-0.00258526,-0.00266418,-0.00273419,-0.00279488,-0.00284589,-0.00288689,-0.00291758,-0.00293773,-0.00294716,-0.00294571,-0.00293332,-0.00290996,-0.00287565,-0.00283048,-0.00277462,-0.00270826,-0.00263169,-0.00254524,-0.0024493,-0.00234435,-0.00223091,-0.00210957,-0.00198099,-0.0018459,-0.00170508,-0.00155941,-0.00140985,-0.00125742,-0.00110326,-0.000948597,-0.0007948,-0.000643365,-0.000495953,-0.000354416,-0.000220831,-9.75333e-05,1.28393e-05,0.000107313,0.000182543,0.000234807,0.000260021,0.000253807,0.000211585,0.00012864,-0
-0,-5.98082e-05,-4.59673e-05,2.46604e-05,0.000138343,0.000283845,0.000451975,0.000635246,0.000827605,0.00102419,0.00122115,0.00141544,0.0016047,0.00178713,0.00196137,0.00212646,0.0022817,0.00242664,0.00256103,0.00268476,0.00279785,0.00290039,0.00299256,0.00307458,0.00314668,0.00320914,0.00326224,0.00330625,0.00334144,0.00336807,0.00338639,0.00339661,0.00339894,0.00339355,0.00338061,0.00336025,0.00333259,0.00329772,0.00325572,0.00320665,0.00315056,0.00308748,0.00301745,0.0029405,0.00285664,0.00276591,0.00266832,0.00256392,0.00245276,0.00233489,0.0022104,0.00207938,0.00194195,0.00179826,0.00164847,0.00149278,0.00133142,0.00116466,0.000992782,0.000816121,0.00063504,0.000449939,0.000261251,6.94472e-05,-0.000124967,-0.000321452,-0.000519436,-0.000718315,-0.000917456,-0.0011162,-0.00131386,-0.00150973,-0.00170308,-0.00189317,-0.00207925,-0.00226056,-0.00243633,-0.0026058,-0.00276822,-0.00292284,-0.00306892,-0.00320575,-0.00333266,-0.00344897,-0.00355408,-0.0036474,-0.0037284,-0.00379659,-0.00385154,-0.00389287,-0.00392028,-0.00393351,-0.00393238,-0.0039168,-0.00388672,-0.0038422,-0.00378334,-0.00371036,-0.00362353,-0.00352322,-0.00340987,-0.00328402,-0.00314627,-0.00299733,-0.00283798,-0.0026691,-0.00249164,-0.00230666,-0.00211531,-0.00191885,-0.00171865,-0.0015162,-0.00131312,-0.00111118,-0.000912337,-0.00071873,-0.000532731,-0.000356973,-0.000194385,-4.82377e-05,7.78224e-05,0.000179734,0.000253002,0.000292682,0.000293385,0.000249257,0.000153885,-0
-0,-4.16137e-05,-1.23133e-06,0.000102887,0.000255645,0.000444551,0.000659286,0.000891362,0.00113383,0.00138107,0.00162853,0.0018726,0.00211045,0.00233988,0.00255921,0.00276721,0.002963,0.003146,0.00331584,0.00347236,0.00361554,0.00374547,0.00386232,0.00396634,0.00405782,0.00413706,0.00420438,0.00426012,0.00430461,0.00433814,0.00436101,0.0043735,0.00437584,0.00436827,0.00435097,0.00432411,0.00428784,0.00424228,0.00418753,0.00412367,0.00405076,0.00396885,0.003878,0.00377824,0.0036696,0.00355214,0.00342588,0.00329089,0.00314725,0.00299503,0.00283435,0.00266534,0.00248816,0.002303,0.00211009,0.0019097,0.00170212,0.00148769,0.0012668,0.00103987,0.000807374,0.000569822,0.000327774,8.18343e-05,-0.000167351,-0.000419094,-0.000672663,-0.00092729,-0.00118217,-0.00143646,-0.0016893,-0.00193978,-0.00218698,-0.00242997,-0.00266779,-0.00289949,-0.00312409,-0.00334063,-0.00354816,-0.00374573,-0.00393242,-0.00410733,-0.0042696,-0.00441841,-0.00455296,-0.00467253,-0.00477644,-0.00486408,-0.00493491,-0.00498846,-0.00502433,-0.00504221,-0.00504188,-0.00502321,-0.00498615,-0.00493076,-0.00485719,-0.00476571,-0.00465667,-0.00453054,-0.00438787,-0.00422935,-0.00405576,-0.00386798,-0.00366701,-0.00345396,-0.00323005,-0.00299663,-0.00275516,-0.00250722,-0.00225456,-0.00199904,-0.00174271,-0.0014878,-0.00123673,-0.000992149,-0.000756977,-0.000534419,-0.000328014,-0.000141673,2.02755e-05,0.000153052,0.00025138,0.000309454,0.000320882,0.000278599,0.000174681,-0
-0,-1.23261e-05,6.38891e-05,0.000209438,0.000408198,0.000646669,0.000913582,0.00119957,0.0014969,0.00179923,0.0021014,0.00239926,0.00268951,0.00296958,0.00323746,0.00349168,0.00373116,0.00395516,0.00416322,0.0043551,0.00453074,0.00469022,0.00483371,0.00496148,0.00507385,0.00517115,0.00525378,0.00532209,0.00537648,0.00541729,0.00544488,0.00545955,0.00546161,0.0054513,0.00542888,0.00539453,0.00534844,0.00529075,0.00522158,0.00514104,0.00504921,0.00494616,0.00483195,0.00470664,0.00457028,0.00442293,0.00426465,0.00409554,0.00391567,0.00372518,0.00352421,0.00331294,0.00309157,0.00286035,0.00261959,0.0023696,0.00211077,0.00184353,0.00156836,0.0012858,0.000996429,0.000700894,0.000399888,9.41596e-05,-0.000215488,-0.000528204,-0.000843083,-0.00115918,-0.00147549,-0.001791,-0.00210462,-0.00241525,-0.00272176,-0.003023,-0.0033178,-0.00360498,-0.00388335,-0.00415173,-0.00440896,-0.00465387,-0.00488534,-0.00510226,-0.00530359,-0.00548831,-0.00565545,-0.00580414,-0.00593354,-0.0060429,-0.00613156,-0.00619894,-0.00624457,-0.00626805,-0.00626913,-0.00624763,-0.0062035,-0.00613683,-0.00604779,-0.00593671,-0.00580402,-0.0056503,-0.00547624,-0.00528267,-0.00507056,-0.00484099,-0.0045952,-0.00433456,-0.00406056,-0.00377485,-0.00347924,-0.00317568,-0.00286627,-0.00255333,-0.00223933,-0.00192697,-0.00161918,-0.00131914,-0.00103033,-0.00075653,-0.00050191,-0.000271023,-6.88769e-05,9.90295e-05,0.000226651,0.000307334,0.000333735,0.000297684,0.000189971,-0
-0,2.83926e-05,0.000150154,0.00034547,0.000597482,0.000891906,0.0012167,0.00156175,0.00191864,0.0022804,0.00264131,0.00299673,0.00334293,0.00367698,0.00399657,0.00429998,0.00458594,0.00485357,0.0051023,0.0053318,0.00554199,0.0057329,0.00590473,0.00605775,0.0061923,0.00630877,0.00640758,0.00648915,0.0065539,0.00660225,0.00663459,0.00665128,0.00665266,0.00663903,0.00661067,0.00656781,0.00651066,0.00643939,0.00635416,0.00625508,0.00614226,0.0060158,0.00587576,0.00572224,0.00555529,0.00537501,0.00518148,0.00497481,0.00475513,0.00452259,0.00427739,0.00401975,0.00374994,0.00346826,0.00317509,0.00287082,0.00255594,0.00223098,0.00189651,0.00155321,0.00120177,0.000842979,0.000477684,0.000106789,-0.000268736,-0.000647861,-0.0010295,-0.0014125,-0.00179567,-0.00217778,-0.00255752,-0.00293358,-0.0033046,-0.00366919,-0.00402596,-0.00437349,-0.00471036,-0.00503517,-0.0053465,-0.00564297,-0.00592324,-0.006186,-0.00642997,-0.00665395,-0.00685679,-0.00703743,-0.00719488,-0.00732824,-0.00743672,-0.00751962,-0.00757638,-0.00760654,-0.00760977,-0.00758587,-0.0075348,-0.00745662,-0.00735158,-0.00722004,-0.00706255,-0.00687977,-0.00667256,-0.0064419,-0.00618894,-0.00591501,-0.00562157,-0.00531026,-0.00498289,-0.00464144,-0.00428805,-0.00392506,-0.003555,-0.0031806,-0.00280482,-0.00243083,-0.00206208,-0.00170231,-0.00135556,-0.00102622,-0.00071906,-0.000439296,-0.000192607,1.48015e-05,0.000176133,0.000283926,0.000329953,0.000305069,0.000198992,-0
-0,8.07045e-05,0.000257994,0.000511706,0.000824479,0.00118144,0.00156995,0.00197927,0.00240042,0.00282589,0.00324945,0.00366604,0.00407154,0.00446268,0.00483688,0.0051922,0.00552717,0.00584077,0.00613233,0.00640145,0.00664799,0.00687199,0.00707361,0.00725316,0.00741099,0.00754753,0.00766324,0.00775859,0.00783404,0.00789007,0.0079271,0.00794554,0.00794579,0.00792819,0.00789304,0.00784062,0.00777116,0.00768487,0.00758193,0.00746248,0.00732665,0.00717456,0.0070063,0.00682197,0.00662167,0.0064055,0.00617358,0.00592606,0.0056631,0.00538489,0.00509168,0.00478374,0.0044614,0.00412504,0.0037751,0.00341209,0.00303658,0.00264919,0.00225064,0.0018417,0.00142324,0.000996167,0.000561499,0.000120307,-0.000326258,-0.000776978,-0.00123057,-0.00168567,-0.00214088,-0.00259473,-0.0030457,-0.00349224,-0.00393274,-0.00436558,-0.00478912,-0.00520169,-0.00560162,-0.00598726,-0.00635697,-0.00670911,-0.0070421,-0.00735441,-0.00764455,-0.00791109,-0.0081527,-0.00836812,-0.0085562,-0.00871587,-0.00884622,-0.00894641,-0.00901579,-0.00905382,-0.0090601,-0.00903441,-0.00897668,-0.008887,-0.00876565,-0.00861306,-0.00842986,-0.00821684,-0.00797499,-0.00770548,-0.00740966,-0.00708909,-0.00674548,-0.00638077,-0.00599708,-0.00559672,-0.00518223,-0.00475633,-0.00432198,-0.00388237,-0.00344093,-0.00300134,-0.0025676,-0.00214399,-0.00173512,-0.001346,-0.000982024,-0.000649039,-0.000353393,-0.000101986,9.76668e-05,0.000237344,0.000308015,0.000299688,0.000201209,-0
-0,0.000144652,0.000387605,0.00070854,0.00108978,0.00151605,0.00197422,0.00245311,0.00294324,0.00343665,0.00392672,0.00440797,0.00487596,0.00532713,0.00575865,0.00616836,0.00655463,0.00691632,0.00725264,0.00756314,0.00784764,0.00810613,0.00833881,0.00854596,0.00872799,0.00888534,0.00901851,0.00912802,0.00921438,0.0092781,0.00931967,0.00933954,0.00933814,0.00931585,0.00927303,0.00920997,0.00912695,0.00902421,0.00890193,0.00876031,0.00859949,0.0084196,0.00822078,0.00800313,0.00776679,0.00751189,0.00723858,0.00694703,0.00663745,0.00631009,0.00596523,0.00560321,0.00522443,0.00482936,0.0044185,0.00399247,0.00355193,0.00309763,0.00263041,0.00215119,0.00166095,0.0011608,0.000651904,0.000135514,-0.000387028,-0.000914303,-0.00144481,-0.00197699,-0.0025092,-0.00303973,-0.00356684,-0.00408871,-0.00460349,-0.0051093,-0.00560424,-0.00608638,-0.0065538,-0.00700458,-0.00743681,-0.00784863,-0.00823819,-0.00860373,-0.00894351,-0.0092559,-0.00953936,-0.00979241,-0.0100137,-0.0102021,-0.0103564,-0.0104758,-0.0105594,-0.0106066,-0.010617,-0.0105903,-0.0105264,-0.0104254,-0.0102877,-0.0101137,-0.00990408,-0.00965988,-0.00938219,-0.00907235,-0.00873193,-0.00836271,-0.0079667,-0.00754612,-0.00710343,-0.00664129,-0.00616261,-0.00567056,-0.00516851,-0.00466014,-0.00414936,-0.00364038,-0.00313774,-0.00264627,-0.00217119,-0.0017181,-0.00129301,-0.000902408,-0.000553301,-0.000253253,-1.04688e-05,0.000166126,0.00026678,0.000280775,0.000196254,-0
-0,0.000220196,0.000539014,0.000936123,0.00139368,0.00189614,0.00243005,0.00298387,0.00354774,0.00411335,0.00467371,0.00522304,0.00575662,0.00627061,0.00676199,0.00722841,0.00766809,0.00807978,0.0084626,0.00881605,0.00913989,0.00943412,0.00969891,0.00993458,0.0101415,0.0103203,0.0104713,0.0105953,0.0106926,0.010764,0.0108098,0.0108307,0.0108271,0.0107994,0.010748,0.0106732,0.0105754,0.0104547,0.0103115,0.010146,0.00995821,0.00974843,0.00951677,0.00926338,0.00898841,0.00869202,0.00837441,0.00803578,0.00767639,0.00729653,0.00689654,0.00647684,0.00603789,0.00558022,0.00510447,0.00461132,0.00410156,0.00357607,0.00303581,0.00248183,0.0019153,0.00133748,0.000749699,0.000153416,-0.000449833,-0.00105842,-0.00167063,-0.00228466,-0.00289863,-0.00351061,-0.00411857,-0.00472046,-0.00531416,-0.00589752,-0.00646837,-0.0070245,-0.00756373,-0.00808386,-0.00858271,-0.00905816,-0.0095081,-0.0099305,-0.0103234,-0.010685,-0.0110133,-0.0113069,-0.0115642,-0.0117837,-0.0119643,-0.0121048,-0.0122043,-0.0122622,-0.012278,-0.0122512,-0.0121818,-0.0120699,-0.0119159,-0.0117203,-0.0114839,-0.0112078,-0.0108933,-0.0105419,-0.0101553,-0.00973572,-0.00928531,-0.00880664,-0.00830248,-0.00777589,-0.00723018,-0.00666892,-0.00609595,-0.00551543,-0.00493177,-0.00434972,-0.00377435,-0.00321108,-0.00266571,-0.00214445,-0.00165391,-0.00120124,-0.000794047,-0.000440563,-0.000149639,6.9149e-05,0.000205405,0.000247792,0.000183886,-0
-0,0.00030724,0.000712127,0.00119442,0.00173624,0.00232189,0.0029377,0.00357187,0.00421429,0.00485633,0.00549077,0.00611155,0.00671372,0.00729324,0.0078469,0.00837221,0.00886726,0.0093307,0.0097616,0.0101594,0.0105238,0.0108548,0.0111526,0.0114176,0.0116501,0.0118507,0.0120199,0.0121584,0.0122668,0.0123456,0.0123954,0.0124169,0.0124104,0.0123764,0.0123155,0.0122279,0.012114,0.011974,0.0118084,0.0116171,0.0114006,0.0111588,0.0108922,0.0106007,0.0102846,0.00994408,0.00957938,0.00919074,0.00877847,0.00834291,0.00788447,0.00740362,0.00690091,0.00637697,0.00583251,0.00526834,0.00468536,0.00408456,0.00346707,0.00283408,0.00218692,0.00152702,0.000855903,0.000175223,-0.000513276,-0.00120775,-0.00190624,-0.00260673,-0.00330709,-0.0040051,-0.00469851,-0.00538498,-0.00606211,-0.00672749,-0.00737864,-0.0080131,-0.00862838,-0.00922201,-0.00979153,-0.0103345,-0.0108486,-0.0113316,-0.0117811,-0.0121951,-0.0125716,-0.0129087,-0.0132047,-0.0134579,-0.013667,-0.0138308,-0.0139482,-0.0140184,-0.0140408,-0.0140151,-0.013941,-0.0138188,-0.0136489,-0.0134317,-0.0131683,-0.0128599,-0.0125078,-0.0121138,-0.0116798,-0.0112083,-0.0107017,-0.0101629,-0.00959505,-0.00900153,-0.00838608,-0.00775271,-0.00710574,-0.00644979,-0.0057898,-0.00513106,-0.0044792,-0.0038402,-0.00322046,-0.00262678,-0.00206642,-0.00154709,-0.00107707,-0.00066519,-0.000320921,-5.44418e-05,0.000123277,0.000200369,0.000163953,-0
-0,0.000405652,0.000906765,0.00148327,0.00211734,0.00279323,0.00349717,0.00421719,0.00494298,0.00566574,0.00637802,0.00707359,0.00774731,0.00839498,0.00901325,0.00959952,0.0101518,0.0106686,0.011149,0.0115924,0.0119984,0.0123672,0.0126988,0.0129936,0.0132521,0.0134749,0.0136625,0.0138156,0.0139349,0.0140209,0.0140744,0.0140959,0.0140859,0.0140449,0.0139735,0.013872,0.0137407,0.0135801,0.0133904,0.0131718,0.0129246,0.012649,0.0123451,0.0120133,0.0116537,0.0112665,0.0108521,0.0104106,0.00994254,0.00944822,0.00892814,0.00838284,0.00781296,0.00721922,0.00660242,0.00596349,0.00530345,0.00462344,0.00392471,0.00320862,0.00247667,0.00173047,0.000971746,0.00020234,-0.000575782,-0.00136055,-0.00214977,-0.00294117,-0.00373237,-0.0045209,-0.00530421,-0.00607969,-0.00684468,-0.00759644,-0.00833224,-0.00904929,-0.00974482,-0.0104161,-0.0110603,-0.0116748,-0.0122569,-0.012804,-0.0133137,-0.0137836,-0.0142114,-0.0145951,-0.0149326,-0.0152222,-0.0154624,-0.0156517,-0.0157889,-0.0158733,-0.0159039,-0.0158805,-0.0158029,-0.0156712,-0.0154858,-0.0152474,-0.014957,-0.0146159,-0.0142256,-0.0137882,-0.0133058,-0.012781,-0.0122166,-0.0116158,-0.0109821,-0.0103194,-0.00963161,-0.00892336,-0.00819939,-0.00746482,-0.00672512,-0.00598611,-0.00525398,-0.00453531,-0.00383708,-0.00316669,-0.00253199,-0.00194134,-0.00140359,-0.000928182,-0.000525173,-0.000205297,1.99577e-05,0.000138265,0.000136372,-0
-0,0.000515273,0.00112269,0.00180241,0.00253674,0.00330997,0.0041083,0.00491969,0.00573373,0.00654149,0.00733539,0.00810906,0.00885725,0.00957564,0.0102608,0.01091,0.0115212,0.0120929,0.0126241,0.0131142,0.0135629,0.0139702,0.0143362,0.0146615,0.0149464,0.0151916,0.0153977,0.0155654,0.0156954,0.0157884,0.015845,0.0158659,0.0158517,0.0158029,0.01572,0.0156035,0.0154537,0.015271,0.0150558,0.0148082,0.0145286,0.0142172,0.0138742,0.0134998,0.0130944,0.0126581,0.0121914,0.0116944,0.0111677,0.0106117,0.010027,0.00941411,0.0087738,0.00810688,0.00741428,0.00669702,0.00595627,0.00519329,0.00440949,0.00360639,0.00278567,0.00194912,0.00109867,0.000236366,-0.000635598,-0.00151492,-0.00239916,-0.0032858,-0.00417219,-0.00505558,-0.00593315,-0.00680201,-0.00765918,-0.00850164,-0.00932636,-0.0101302,-0.0109102,-0.0116632,-0.0123861,-0.013076,-0.01373,-0.014345,-0.0149185,-0.0154478,-0.0159303,-0.0163637,-0.0167458,-0.0170746,-0.0173484,-0.0175656,-0.017725,-0.0178254,-0.017866,-0.0178465,-0.0177666,-0.0176263,-0.0174262,-0.017167,-0.0168497,-0.0164758,-0.0160471,-0.0155656,-0.0150338,-0.0144546,-0.0138309,-0.0131665,-0.012465,-0.0117307,-0.0109682,-0.0101824,-0.00937851,-0.00856217,-0.00773938,-0.00691653,-0.00610036,-0.00529803,-0.00451712,-0.00376561,-0.00305198,-0.00238518,-0.00177465,-0.00123042,-0.000763085,-0.000383916,-0.00010487,6.13249e-05,0.000101103,-0
-0,0.000635928,0.00135961,0.0021515,0.00299408,0.00387175,0.00477076,0.00567908,0.00658626,0.00748332,0.00836261,0.0092177,0.0100432,0.0108349,0.0115891,0.0123032,0.012975,0.013603,0.0141863,0.0147241,0.0152163,0.0156628,0.0160639,0.01642,0.0167316,0.0169993,0.0172239,0.0174061,0.0175466,0.0176462,0.0177055,0.0177253,0.0177062,0.0176488,0.0175535,0.0174208,0.0172513,0.0170452,0.016803,0.0165249,0.0162111,0.0158621,0.0154779,0.015059,0.0146056,0.0141179,0.0135964,0.0130415,0.0124535,0.0118331,0.0111807,0.0104973,0.00978342,0.00904013,0.00826842,0.00746944,0.00664448,0.00579495,0.00492241,0.00402856,0.00311525,0.00218445,0.00123831,0.000279087,-0.000690797,-0.0016688,-0.00265224,-0.00363832,-0.00462413,-0.00560665,-0.00658276,-0.00754927,-0.0085029,-0.00944035,-0.0103582,-0.0112532,-0.0121217,-0.0129606,-0.0137663,-0.0145357,-0.0152653,-0.0159522,-0.0165931,-0.0171853,-0.0177259,-0.0182123,-0.0186422,-0.0190132,-0.0193234,-0.0195712,-0.019755,-0.0198736,-0.0199262,-0.0199122,-0.0198313,-0.0196838,-0.0194699,-0.0191905,-0.0188467,-0.0184402,-0.0179728,-0.0174468,-0.0168649,-0.0162301,-0.015546,-0.0148162,-0.0140451,-0.0132372,-0.0123976,-0.0115315,-0.0106448,-0.00974357,-0.00883434,-0.00792403,-0.00701999,-0.00612994,-0.00526205,-0.00442494,-0.00362764,-0.00287971,-0.00219119,-0.00157265,-0.00103523,-0.000590696,-0.000251437,-3.05483e-05,5.81348e-05,-0
-0,0.00076743,0.00161723,0.00253015,0.00348892,0.00447812,0.00548412,0.00649493,0.00750015,0.00849081,0.00945927,0.0103991,0.0113049,0.0121722,0.0129977,0.0137785,0.0145125,0.0151983,0.0158347,0.0164213,0.0169578,0.0174442,0.0178808,0.018268,0.0186065,0.0188969,0.0191399,0.0193364,0.0194872,0.019593,0.0196546,0.0196726,0.0196479,0.0195809,0.0194723,0.0193225,0.019132,0.0189013,0.0186307,0.0183204,0.017971,0.0175826,0.0171555,0.01669,0.0161865,0.0156452,0.0150667,0.0144513,0.0137995,0.0131119,0.0123893,0.0116324,0.0108421,0.0100194,0.00916542,0.00828148,0.00736898,0.00642949,0.00546471,0.00447651,0.00346693,0.00243815,0.00139249,0.00033247,-0.000739282,-0.00181997,-0.00290667,-0.0039963,-0.00508568,-0.0061715,-0.00725036,-0.00831875,-0.0093731,-0.0104098,-0.0114251,-0.0124153,-0.0133767,-0.0143055,-0.0151982,-0.016051,-0.0168604,-0.0176229,-0.0183352,-0.018994,-0.0195963,-0.0201392,-0.02062,-0.0210364,-0.021386,-0.0216671,-0.0218779,-0.0220171,-0.0220837,-0.0220772,-0.0219971,-0.0218435,-0.021617,-0.0213183,-0.0209486,-0.0205097,-0.0200036,-0.0194328,-0.0188002,-0.018109,-0.0173631,-0.0165666,-0.0157241,-0.0148406,-0.0139215,-0.0129726,-0.0120001,-0.0110109,-0.0100118,-0.00901036,-0.00801453,-0.00703261,-0.00607337,-0.005146,-0.00426016,-0.00342598,-0.00265407,-0.00195556,-0.00134212,-0.000825969,-0.000419923,-0.000137417,7.47054e-06,-0
-0,0.000909588,0.00189519,0.00293793,0.00402078,0.00512857,0.00624781,0.00736667,0.00847485,0.00956343,0.0106248,0.0116526,0.0126415,0.0135871,0.014486,0.0153353,0.0161331,0.0168779,0.0175687,0.0182049,0.0187864,0.0193132,0.0197857,0.0202044,0.0205699,0.020883,0.0211445,0.0213551,0.0215158,0.0216274,0.0216907,0.0217064,0.0216753,0.021598,0.0214751,0.0213071,0.0210946,0.020838,0.0205376,0.0201939,0.0198071,0.0193777,0.0189058,0.0183919,0.0178364,0.0172395,0.0166017,0.0159235,0.0152056,0.0144485,0.013653,0.0128199,0.0119503,0.0110453,0.0101061,0.00913413,0.00813092,0.00709819,0.00603781,0.00495184,0.00384247,0.00271209,0.00156325,0.000398661,-0.000778788,-0.00196606,-0.00315997,-0.00435717,-0.00555419,-0.00674744,-0.00793321,-0.00910767,-0.010267,-0.0114071,-0.012524,-0.0136138,-0.0146722,-0.0156953,-0.0166791,-0.0176196,-0.0185128,-0.019355,-0.0201425,-0.0208718,-0.0215395,-0.0221425,-0.0226778,-0.0231428,-0.023535,-0.0238523,-0.0240929,-0.0242553,-0.0243383,-0.0243413,-0.0242638,-0.0241059,-0.023868,-0.023551,-0.0231562,-0.0226854,-0.0221407,-0.0215249,-0.0208411,-0.0200928,-0.0192841,-0.0184195,-0.0175038,-0.0165427,-0.0155418,-0.0145075,-0.0134465,-0.0123659,-0.0112736,-0.0101773,-0.00908571,-0.00800767,-0.00695254,-0.00593013,-0.0049507,-0.00402497,-0.0031641,-0.00237979,-0.00168421,-0.00109003,-0.000610486,-0.000259331,-5.08808e-05,-0
-0,0.0010622,0.00219317,0.00337437,0.00458912,0.00582248,0.00706122,0.00829368,0.0095097,0.0107005,0.0118586,0.0129777,0.0140526,0.0150789,0.0160532,0.0169729,0.017836,0.0186411,0.0193872,0.020074,0.0207011,0.0212689,0.0217777,0.0222281,0.0226208,0.0229566,0.0232363,0.0234609,0.0236312,0.0237482,0.0238127,0.0238254,0.0237872,0.0236988,0.0235607,0.0233736,0.0231379,0.0228542,0.0225228,0.0221442,0.0217187,0.0212467,0.0207284,0.0201644,0.0195549,0.0189004,0.0182013,0.0174583,0.0166719,0.0158428,0.014972,0.0140603,0.0131088,0.0121188,0.0110915,0.0100286,0.00893162,0.00780255,0.00664338,0.00545632,0.00424379,0.00300835,0.00175276,0.000479978,-0.000806886,-0.00210454,-0.00340953,-0.00471823,-0.00602691,-0.00733165,-0.00862843,-0.00991315,-0.0111816,-0.0124294,-0.0136523,-0.0148458,-0.0160056,-0.0171273,-0.0182064,-0.0192388,-0.02022,-0.0211461,-0.0220129,-0.0228167,-0.0235537,-0.0242206,-0.0248141,-0.0253312,-0.0257694,-0.0261261,-0.0263995,-0.0265878,-0.0266898,-0.0267046,-0.0266317,-0.0264713,-0.0262235,-0.0258895,-0.0254705,-0.0249684,-0.0243855,-0.0237248,-0.0229894,-0.0221833,-0.0213108,-0.0203767,-0.0193864,-0.0183456,-0.0172607,-0.0161383,-0.0149858,-0.0138109,-0.0126217,-0.0114268,-0.0102353,-0.00905675,-0.00790108,-0.0067787,-0.00570047,-0.00467769,-0.00372213,-0.00284599,-0.00206196,-0.00138318,-0.00082328,-0.00039634,-0.000116914,-0