-0,-0.000933626,-0.00355444,-0.00678711,-0.00976978,-0.0119429,-0.0129699,-0.0126613,-0.0109229,-0.00772226,-0.00306814,0.00300327,0.0104375,0.0191681,0.029121,0.0402178,0.0523778,0.0655201,0.0795643,0.0944318,0.110046,0.126333,0.143222,0.160646,0.178538,0.196839,0.215487,0.234428,0.253608,0.272976,0.292482,0.31208,0.331725,0.351372,0.370979,0.390505,0.409908,0.429148,0.448187,0.466984,0.4855,0.503697,0.521534,0.538972,0.555973,0.572496,0.5885,0.603947,0.618796,0.633006,0.646538,0.65935,0.671404,0.682658,0.693076,0.702618,0.711247,0.718928,0.725624,0.731305,0.735937,0.739493,0.741945,0.74327,0.743446,0.742455,0.740283,0.736918,0.732353,0.726585,0.719615,0.711448,0.702095,0.69157,0.679894,0.667089,0.653188,0.638223,0.622235,0.605269,0.587374,0.568606,0.549023,0.528689,0.507673,0.486047,0.463888,0.441274,0.418289,0.395019,0.371552,0.347977,0.324387,0.300874,0.277531,0.254453,0.231731,0.209459,0.187726,0.166623,0.146234,0.126643,0.107931,0.0901733,0.0734409,0.0578005,0.0433131,0.0300336,0.0180103,0.00728425,-0.00211108,-0.010151,-0.0168202,-0.0221138,-0.0260387,-0.0286155,-0.02988,-0.0298868,-0.0287127,-0.026462,-0.0232744,-0.0193349,-0.0148892,-0.0102645,-0.00589512,-0.00234196,-0.000247959,-0
-0.000933626,-0.00168884,-0.0024428,-0.00329873,-0.00394858,-0.00405602,-0.00335605,-0.00166518,0.00113163,0.00509695,0.0102545,0.0165995,0.0241067,0.0327362,0.0424378,0.0531542,0.0648235,0.0773811,0.0907613,0.104898,0.119726,0.13518,0.151198,0.167719,0.184684,0.202037,0.219721,0.237686,0.255879,0.274252,0.292759,0.311353,0.329991,0.348629,0.367227,0.385742,0.404136,0.422369,0.440401,0.458195,0.475711,0.492913,0.509761,0.526218,0.542246,0.557807,0.572863,0.587376,0.601308,0.614621,0.627278,0.639242,0.650475,0.660943,0.670608,0.679438,0.687397,0.694455,0.700579,0.705741,0.709914,0.713072,0.715193,0.716255,0.716242,0.715137,0.71293,0.709613,0.705179,0.699629,0.692964,0.685193,0.676325,0.666375,0.655365,0.643316,0.630259,0.616225,0.601253,0.585384,0.568664,0.551144,0.532879,0.513928,0.494352,0.474218,0.453595,0.432557,0.411177,0.389533,0.367706,0.345776,0.323827,0.301941,0.280204,0.258698,0.237507,0.216715,0.196402,0.176649,0.157531,0.139125,0.1215,0.104724,0.0888617,0.0739702,0.0601032,0.0473083,0.0356268,0.025093,0.0157337,0.0075673,0.000603096,-0.00515992,-0.00973422,-0.0131452,-0.0154333,-0.0166561,-0.0168912,-0.0162405,-0.0148339,-0.0128351,-0.0104457,-0.00790694,-0.00548806,-0.00343854,-0.00184366,-0.000247959
-0.00355777,-0.00244546,-0.00122951,-1.69075e-05,0.00132957,0.00302263,0.00526607,0.0082243,0.012017,0.0167234,0.0223892,0.029033,0.0366532,0.0452318,0.0547391,0.0651366,0.0763793,0.0884176,0.101199,0.11467,0.128774,0.143458,0.158665,0.174341,0.190435,0.206893,0.223665,0.240702,0.257956,0.275381,0.292932,0.310566,0.328238,0.345909,0.363536,0.381081,0.398505,0.415767,0.432832,0.44966,0.466216,0.482461,0.498359,0.513873,0.528968,0.543606,0.557752,0.57137,0.584425,0.596881,0.608703,0.619858,0.63031,0.640029,0.648981,0.657134,0.66446,0.67093,0.676515,0.681191,0.684935,0.687723,0.689537,0.690359,0.690176,0.688974,0.686746,0.683484,0.679188,0.673857,0.667495,0.660111,0.651717,0.642327,0.631961,0.620642,0.608397,0.595259,0.581261,0.566443,0.550847,0.534521,0.517514,0.499881,0.481677,0.462963,0.443802,0.424259,0.404402,0.384302,0.364029,0.343658,0.323261,0.302914,0.282692,0.26267,0.242923,0.223525,0.204548,0.186062,0.168138,0.15084,0.134231,0.118372,0.103318,0.0891193,0.075823,0.0634697,0.0520942,0.0417247,0.0323822,0.0240796,0.0168211,0.0106011,0.00540309,0.00119842,-0.00205525,-0.00441568,-0.00595798,-0.00677661,-0.00698714,-0.00672684,-0.00615231,-0.00543007,-0.00471206,-0.00408071,-0.00344032,-0.00233721
-0.00680584,-0.00330601,-1.3131e-05,0.00313075,0.00626088,0.00955077,0.0131734,0.0172795,0.0219892,0.0273913,0.0335464,0.040491,0.0482415,0.0567984,0.0661492,0.0762717,0.0871357,0.0987055,0.110941,0.123798,0.137232,0.151196,0.165644,0.180526,0.195796,0.211406,0.227312,0.243466,0.259824,0.276342,0.292978,0.30969,0.326436,0.343176,0.359871,0.376482,0.392971,0.409301,0.425433,0.441332,0.456962,0.472287,0.487271,0.501879,0.516077,0.52983,0.543104,0.555866,0.568081,0.579718,0.590744,0.601127,0.610838,0.619845,0.62812,0.635635,0.642363,0.648279,0.653359,0.657581,0.660925,0.663371,0.664905,0.665511,0.665178,0.663898,0.661663,0.658469,0.654318,0.64921,0.643152,0.636151,0.628221,0.619378,0.609639,0.599027,0.587569,0.575294,0.562234,0.548426,0.533909,0.518726,0.502923,0.486548,0.469653,0.452293,0.434524,0.416404,0.397996,0.37936,0.360563,0.341667,0.322741,0.30385,0.28506,0.26644,0.248055,0.229971,0.212251,0.194959,0.178154,0.161895,0.146238,0.131234,0.116932,0.103376,0.0906065,0.078657,0.0675569,0.0573289,0.0479888,0.039545,0.0319973,0.0253366,0.0195436,0.0145879,0.0104268,0.00700421,0.00424972,0.0020777,0.000387692,-0.000933701,-0.0020073,-0.00294954,-0.00384988,-0.00473236,-0.0055,-0.00587969
-0.00982197,-0.00395999,0.00135202,0.0062921,0.0110326,0.0157466,0.0205981,0.0257324,0.0312704,0.0373078,0.0439159,0.0511444,0.0590243,0.0675708,0.0767861,0.0866618,0.0971808,0.108319,0.120048,0.132334,0.145141,0.158429,0.172159,0.186289,0.200778,0.215582,0.23066,0.245971,0.261471,0.27712,0.292878,0.308703,0.324558,0.340403,0.356199,0.371911,0.387499,0.402928,0.418163,0.433166,0.447905,0.462344,0.476448,0.490185,0.503522,0.516425,0.528863,0.540804,0.552217,0.563072,0.573338,0.582988,0.591992,0.600325,0.607959,0.614871,0.621036,0.626433,0.631041,0.634841,0.637815,0.639949,0.641228,0.641643,0.641183,0.639843,0.637617,0.634506,0.630509,0.625631,0.619878,0.61326,0.605789,0.597482,0.588356,0.578433,0.567738,0.556299,0.544145,0.53131,0.51783,0.503745,0.489096,0.473927,0.458284,0.442216,0.425774,0.409011,0.39198,0.374738,0.357341,0.339847,0.322315,0.304802,0.287369,0.270074,0.252975,0.236131,0.219596,0.203426,0.187675,0.172392,0.157626,0.143422,0.129822,0.116863,0.104581,0.0930021,0.0821515,0.0720466,0.0626988,0.0541123,0.0462838,0.0392013,0.0328437,0.0271798,0.0221677,0.017754,0.0138733,0.0104488,0.007393,0.00461094,0.0020057,-0.000511549,-0.0030062,-0.0054995,-0.0079482,-0.0102422
-0.0120452,-0.00406451,0.00308886,0.00965315,0.0158312,0.0218057,0.0277414,0.0337834,0.0400546,0.0466561,0.0536675,0.0611485,0.0691417,0.0776744,0.0867607,0.0964042,0.106599,0.117332,0.128583,0.140329,0.152541,0.165188,0.178236,0.19165,0.205392,0.219426,0.233712,0.248213,0.262889,0.277702,0.292614,0.307587,0.322582,0.337563,0.352493,0.367335,0.382054,0.396615,0.410983,0.425123,0.439002,0.452587,0.465845,0.478744,0.491253,0.503341,0.514977,0.526132,0.536778,0.546885,0.556428,0.565379,0.573714,0.581407,0.588437,0.59478,0.600418,0.605329,0.609497,0.612906,0.615542,0.617391,0.618444,0.618692,0.618128,0.616748,0.61455,0.611534,0.607703,0.603063,0.59762,0.591385,0.584371,0.576593,0.568069,0.55882,0.548868,0.53824,0.526963,0.515069,0.50259,0.489562,0.476022,0.462009,0.447566,0.432735,0.417562,0.402093,0.386376,0.370461,0.354396,0.338234,0.322025,0.30582,0.289672,0.273632,0.25775,0.242076,0.22666,0.211549,0.196789,0.182424,0.168495,0.155041,0.142097,0.129696,0.117866,0.10663,0.0960069,0.0860107,0.0766484,0.0679211,0.0598225,0.0523388,0.0454476,0.0391176,0.0333083,0.027969,0.0230394,0.0184502,0.0141239,0.00997812,0.0059301,0.00190313,-0.00216472,-0.00631217,-0.010552,-0.0148847
-0.0131287,-0.00334242,0.00541451,0.0134007,0.020834,0.0279048,0.0347805,0.0416075,0.0485115,0.0555979,0.0629524,0.0706431,0.0787213,0.0872242,0.0961759,0.10559,0.11547,0.125812,0.136605,0.147834,0.159477,0.171509,0.183903,0.196629,0.209654,0.222947,0.236471,0.250192,0.264073,0.27808,0.292175,0.306324,0.320489,0.334635,0.348727,0.36273,0.376609,0.39033,0.403861,0.417167,0.430217,0.442979,0.455421,0.467514,0.479227,0.490531,0.501398,0.511801,0.521713,0.531107,0.53996,0.548248,0.555947,0.563036,0.569495,0.575305,0.580447,0.584906,0.588667,0.591717,0.594044,0.595637,0.59649,0.596596,0.595951,0.594552,0.5924,0.589496,0.585844,0.581451,0.576324,0.570475,0.563916,0.556663,0.548733,0.540144,0.530919,0.521082,0.510659,0.499676,0.488165,0.476157,0.463685,0.450785,0.437493,0.423849,0.40989,0.39566,0.381198,0.366548,0.351754,0.33686,0.321909,0.306948,0.29202,0.277169,0.26244,0.247875,0.233517,0.219406,0.205581,0.192081,0.17894,0.16619,0.153863,0.141983,0.130575,0.119658,0.109245,0.0993459,0.0899656,0.0811016,0.0727456,0.0648822,0.0574883,0.050533,0.0439771,0.0377728,0.0318643,0.0261879,0.0206736,0.0152471,0.00983289,0.0043579,-0.00124465,-0.00703368,-0.0130643,-0.019403
-0.0128634,-0.00159184,0.00851065,0.0177012,0.0262004,0.0342006,0.0418705,0.0493577,0.0567897,0.0642753,0.0719051,0.0797532,0.0878782,0.0963251,0.105126,0.114303,0.123868,0.133825,0.144171,0.154896,0.165987,0.177424,0.189185,0.201246,0.213579,0.226154,0.238941,0.251907,0.26502,0.278246,0.291551,0.304901,0.318262,0.3316,0.34488,0.35807,0.371136,0.384045,0.396766,0.409266,0.421515,0.433482,0.445138,0.456454,0.467401,0.477953,0.488083,0.497765,0.506975,0.515689,0.523886,0.531543,0.53864,0.545158,0.55108,0.556389,0.56107,0.565109,0.568494,0.571215,0.573263,0.574629,0.575309,0.575299,0.574596,0.5732,0.571112,0.568335,0.564876,0.560741,0.555938,0.550479,0.544377,0.537646,0.530302,0.522364,0.513853,0.504789,0.495197,0.485101,0.474528,0.463508,0.452068,0.440241,0.428058,0.415554,0.402761,0.389717,0.376457,0.363018,0.349437,0.335753,0.322002,0.308224,0.294456,0.280737,0.267102,0.253589,0.240233,0.227069,0.21413,0.201447,0.18905,0.176965,0.165217,0.153828,0.142816,0.132197,0.121979,0.11217,0.10277,0.0937759,0.0851765,0.0769553,0.0690892,0.0615478,0.0542931,0.0472802,0.0404566,0.0337633,0.0271354,0.0205036,0.013796,0.00693947,-0.000139253,-0.00751507,-0.0152703,-0.0235068
-0.0111267,0.00132682,0.0125184,0.0226933,0.0320668,0.0408286,0.0491461,0.0571666,0.0650186,0.072813,0.0806439,0.0885901,0.0967158,0.105072,0.113698,0.122622,0.131864,0.141433,0.151334,0.161562,0.172111,0.182966,0.19411,0.205523,0.217181,0.22906,0.24113,0.253363,0.265729,0.278196,0.290734,0.303308,0.315888,0.328441,0.340934,0.353335,0.365612,0.377735,0.389671,0.401391,0.412866,0.424066,0.434963,0.44553,0.45574,0.465569,0.474991,0.483983,0.492522,0.500588,0.508159,0.515218,0.521745,0.527725,0.533142,0.537982,0.542233,0.545884,0.548924,0.551347,0.553144,0.554311,0.554845,0.554743,0.554005,0.552633,0.550629,0.547997,0.544745,0.540879,0.536409,0.531346,0.525702,0.519492,0.512731,0.505437,0.497627,0.489322,0.480542,0.471311,0.461652,0.451589,0.44115,0.43036,0.419248,0.407842,0.396172,0.384269,0.372162,0.359883,0.347464,0.334937,0.322333,0.309685,0.297024,0.284381,0.271789,0.259276,0.246874,0.234609,0.22251,0.210602,0.198909,0.187453,0.176253,0.165328,0.15469,0.144351,0.134318,0.124593,0.115175,0.106058,0.0972302,0.0886738,0.0803654,0.0722754,0.0643673,0.0565982,0.0489189,0.0412736,0.0336014,0.0258361,0.0179078,0.00974257,0.00126206,-0.00761876,-0.016997,-0.0269907
-0.0078506,0.00550634,0.0175427,0.0284875,0.0385465,0.0479035,0.0567223,0.0651485,0.0733103,0.0813196,0.0892729,0.0972522,0.105326,0.11355,0.121969,0.130617,0.139519,0.148692,0.158143,0.167875,0.177886,0.188166,0.198703,0.20948,0.220478,0.231674,0.243045,0.254562,0.266199,0.277927,0.289717,0.301536,0.313356,0.325145,0.336872,0.348506,0.360018,0.371376,0.382552,0.393517,0.404241,0.414699,0.424863,0.434708,0.444209,0.453342,0.462085,0.470415,0.478314,0.48576,0.492737,0.499228,0.505217,0.510689,0.515632,0.520035,0.523887,0.52718,0.529905,0.532058,0.533634,0.534629,0.535043,0.534874,0.534125,0.532797,0.530896,0.528426,0.525395,0.521811,0.517683,0.513023,0.507842,0.502154,0.495974,0.489317,0.482199,0.47464,0.466658,0.458273,0.449504,0.440375,0.430907,0.421123,0.411047,0.400704,0.390117,0.379313,0.368316,0.357153,0.34585,0.334432,0.322927,0.31136,0.299758,0.288145,0.276548,0.26499,0.253496,0.242088,0.230789,0.219618,0.208595,0.197737,0.187059,0.176574,0.166292,0.15622,0.146362,0.136719,0.127286,0.118056,0.109015,0.100145,0.091424,0.0828215,0.074303,0.0658274,0.0573479,0.0488119,0.0401612,0.0313324,0.0222569,0.0128605,0.00306254,-0.00722685,-0.0181107,-0.0297113
-0.0030021,0.0110056,0.0236584,0.0351687,0.0457305,0.0555198,0.0646956,0.0734004,0.0817609,0.0898891,0.0978827,0.105826,0.11379,0.121835,0.13001,0.138353,0.146893,0.155653,0.164645,0.173876,0.183347,0.193055,0.202989,0.213138,0.223485,0.234011,0.244693,0.255509,0.266433,0.277438,0.288496,0.299578,0.310656,0.3217,0.33268,0.343568,0.354334,0.36495,0.375387,0.385618,0.395616,0.405356,0.414812,0.423959,0.432776,0.44124,0.44933,0.457027,0.464312,0.471169,0.47758,0.483532,0.489012,0.494007,0.498506,0.502501,0.505984,0.508948,0.511387,0.513299,0.51468,0.51553,0.515849,0.515638,0.5149,0.513639,0.51186,0.509569,0.506775,0.503485,0.499709,0.495459,0.490746,0.485582,0.479981,0.473957,0.467526,0.460703,0.453505,0.445949,0.438053,0.429835,0.421314,0.412508,0.403439,0.394125,0.384587,0.374845,0.36492,0.354833,0.344604,0.334255,0.323806,0.313278,0.302691,0.292066,0.281422,0.270779,0.260154,0.249566,0.239031,0.228565,0.218182,0.207896,0.197716,0.187652,0.17771,0.167895,0.158207,0.148645,0.139202,0.129868,0.120631,0.111471,0.102365,0.0932853,0.0841972,0.0750621,0.0658353,0.0564668,0.0469009,0.0370768,0.0269275,0.01638,0.00535351,-0.00624229,-0.0185104,-0.0315702
0.0034294,0.0178592,0.0309175,0.0428004,0.0536902,0.0637545,0.0731461,0.0820038,0.0904521,0.098602,0.106552,0.114386,0.12218,0.129995,0.137883,0.145886,0.154038,0.162364,0.170881,0.179601,0.188527,0.197659,0.206992,0.216516,0.226217,0.23608,0.246085,0.25621,0.266432,0.276726,0.287067,0.297427,0.307779,0.318094,0.328346,0.338505,0.348545,0.358437,0.368156,0.377674,0.386968,0.396011,0.404781,0.413255,0.421412,0.429232,0.436695,0.443784,0.450483,0.456776,0.462649,0.468091,0.47309,0.477635,0.481719,0.485335,0.488477,0.49114,0.493322,0.49502,0.496234,0.496964,0.497213,0.496982,0.496278,0.495103,0.493465,0.491371,0.488828,0.485846,0.482433,0.478602,0.474362,0.469725,0.464704,0.459312,0.453562,0.447467,0.441043,0.434303,0.427263,0.419937,0.412341,0.404491,0.396401,0.388089,0.379569,0.370858,0.361971,0.352925,0.343735,0.334417,0.324987,0.315461,0.305852,0.296178,0.286451,0.276686,0.266897,0.257096,0.247296,0.237507,0.227739,0.218002,0.208301,0.198642,0.18903,0.179463,0.169942,0.160462,0.151015,0.14159,0.132174,0.122746,0.113283,0.103759,0.094141,0.0843911,0.0744672,0.0643216,0.0539014,0.0431483,0.0319977,0.0203788,0.00821311,-0.00458725,-0.0181212,-0.0325013
0.0114399,0.0260846,0.0393535,0.0514285,0.0624804,0.0726683,0.0821389,0.0910264,0.0994525,0.107527,0.115347,0.122999,0.130557,0.138087,0.145642,0.153268,0.161001,0.168868,0.176891,0.185084,0.193455,0.202005,0.210733,0.219632,0.22869,0.237894,0.247227,0.256669,0.266199,0.275793,0.285429,0.295079,0.304718,0.31432,0.323858,0.333305,0.342635,0.351822,0.36084,0.369665,0.378273,0.386641,0.394747,0.402569,0.410089,0.417288,0.424148,0.430654,0.436791,0.442547,0.447909,0.452866,0.457411,0.461534,0.46523,0.468494,0.471322,0.473712,0.475662,0.477172,0.478244,0.478879,0.479081,0.478855,0.478204,0.477137,0.475658,0.473777,0.471501,0.468839,0.465801,0.462396,0.458636,0.454531,0.450092,0.44533,0.440258,0.434886,0.429227,0.423293,0.417095,0.410646,0.403958,0.397042,0.389911,0.382575,0.375048,0.36734,0.359462,0.351427,0.343245,0.334927,0.326484,0.317927,0.309265,0.300509,0.291669,0.282753,0.27377,0.26473,0.255638,0.246503,0.237329,0.228122,0.218885,0.20962,0.200328,0.191006,0.181651,0.172256,0.162814,0.15331,0.143731,0.134057,0.124266,0.11433,0.104219,0.0938974,0.0833242,0.0724545,0.0612383,0.0496199,0.0375382,0.0249255,0.011707,-0.00220029,-0.016889,-0.0324624
0.021016,0.0356867,0.0489867,0.061085,0.0721421,0.082309,0.0917262,0.100523,0.108819,0.116721,0.124326,0.131719,0.138977,0.146164,0.153338,0.160544,0.167822,0.175203,0.182709,0.190357,0.198158,0.206117,0.214233,0.222503,0.230917,0.239464,0.248128,0.256892,0.265736,0.274639,0.283578,0.29253,0.301468,0.310369,0.319206,0.327956,0.336591,0.345089,0.353424,0.361573,0.369514,0.377225,0.384686,0.391877,0.398781,0.40538,0.41166,0.417606,0.423206,0.428448,0.433322,0.437821,0.441937,0.445664,0.448997,0.451935,0.454475,0.456616,0.45836,0.459707,0.460661,0.461225,0.461403,0.461202,0.460627,0.459685,0.458384,0.456732,0.454738,0.452409,0.449757,0.446789,0.443516,0.439947,0.436092,0.431962,0.427566,0.422913,0.418013,0.412876,0.40751,0.401925,0.39613,0.390132,0.38394,0.377562,0.371005,0.364277,0.357384,0.350335,0.343135,0.33579,0.328307,0.320692,0.312949,0.305086,0.297105,0.289013,0.280814,0.272511,0.264108,0.255607,0.247011,0.238321,0.229536,0.220656,0.211678,0.202599,0.193411,0.184108,0.174679,0.16511,0.155387,0.145489,0.135396,0.12508,0.114512,0.103659,0.0924818,0.0809383,0.0689812,0.0565584,0.0436122,0.0300793,0.0158897,0.000966543,-0.014775,-0.0314281
0.032138,0.0466621,0.0598268,0.0717904,0.0827045,0.0927125,0.101949,0.110539,0.118599,0.126233,0.133536,0.140594,0.147484,0.15427,0.161011,0.167754,0.17454,0.181402,0.188365,0.195447,0.202662,0.210016,0.217511,0.225145,0.232911,0.240799,0.248795,0.256884,0.265047,0.273265,0.281515,0.289776,0.298023,0.306233,0.314382,0.322446,0.330401,0.338223,0.34589,0.353379,0.36067,0.367742,0.374576,0.381155,0.387463,0.393483,0.399204,0.404611,0.409695,0.414446,0.418857,0.42292,0.426631,0.429985,0.432981,0.435616,0.437892,0.439809,0.44137,0.442578,0.443436,0.443951,0.444127,0.443972,0.443492,0.442694,0.441588,0.440182,0.438483,0.436501,0.434244,0.431722,0.428944,0.425917,0.422651,0.419154,0.415433,0.411497,0.407352,0.403006,0.398464,0.393733,0.388819,0.383726,0.378458,0.373021,0.367417,0.36165,0.355723,0.349639,0.343399,0.337006,0.330461,0.323765,0.316921,0.309928,0.302787,0.295499,0.288064,0.280481,0.27275,0.26487,0.256839,0.248655,0.240315,0.231815,0.22315,0.214313,0.205297,0.196092,0.186687,0.177068,0.167218,0.15712,0.14675,0.136084,0.125094,0.113748,0.10201,0.0898403,0.0771945,0.0640243,0.0502762,0.0358916,0.0208064,0.0049504,-0.0117526,-0.0293853
0.0447829,0.0590008,0.0718758,0.0835568,0.0941877,0.103905,0.112839,0.12111,0.128829,0.136101,0.143018,0.149665,0.156118,0.162443,0.168698,0.174932,0.181186,0.187495,0.193886,0.200379,0.206988,0.213721,0.220584,0.227573,0.234685,0.24191,0.249237,0.256651,0.264135,0.271671,0.279237,0.286814,0.294378,0.301907,0.309378,0.316767,0.324053,0.331213,0.338225,0.345069,0.351724,0.358173,0.364398,0.370382,0.376111,0.381572,0.386752,0.391641,0.39623,0.400511,0.404479,0.408128,0.411456,0.41446,0.41714,0.419496,0.421531,0.423246,0.424646,0.425736,0.426521,0.427007,0.427201,0.427111,0.426744,0.426109,0.425214,0.424067,0.422678,0.421055,0.419206,0.417139,0.414863,0.412384,0.409711,0.406849,0.403806,0.400585,0.397193,0.393634,0.389911,0.386027,0.381985,0.377786,0.373432,0.368922,0.364258,0.359438,0.354461,0.349325,0.344029,0.338571,0.332947,0.327155,0.321191,0.315052,0.308735,0.302236,0.295551,0.288675,0.281605,0.274335,0.266861,0.259178,0.251278,0.243156,0.234804,0.226214,0.217376,0.208279,0.198911,0.189256,0.179299,0.169021,0.158401,0.147415,0.136036,0.124233,0.111975,0.099223,0.0859371,0.0720725,0.0575802,0.0424069,0.0264944,0.00978009,-0.00780367,-0.0263291
0.0589248,0.0726888,0.0851297,0.0963891,0.106604,0.115906,0.124419,0.132261,0.13954,0.146357,0.152804,0.158964,0.164912,0.170715,0.17643,0.182107,0.187789,0.193509,0.199298,0.205175,0.211156,0.217251,0.223466,0.229799,0.236248,0.242805,0.249459,0.256197,0.263002,0.269858,0.276745,0.283642,0.290529,0.297384,0.304185,0.31091,0.317537,0.324045,0.330415,0.336626,0.34266,0.3485,0.354131,0.359536,0.364703,0.369621,0.374279,0.378667,0.38278,0.386611,0.390155,0.393411,0.396376,0.399051,0.401436,0.403533,0.405347,0.406881,0.408142,0.409133,0.409864,0.410341,0.410572,0.410565,0.410328,0.409871,0.409203,0.408331,0.407265,0.406012,0.404581,0.402979,0.401213,0.399289,0.397214,0.394991,0.392627,0.390123,0.387483,0.384708,0.3818,0.378759,0.375583,0.372272,0.368823,0.365232,0.361498,0.357613,0.353575,0.349377,0.345013,0.340477,0.335762,0.330861,0.325766,0.320471,0.314966,0.309246,0.303302,0.297125,0.290709,0.284044,0.277124,0.269938,0.262479,0.254737,0.246702,0.238364,0.229712,0.220734,0.211416,0.201742,0.191697,0.181262,0.170417,0.159138,0.147401,0.135178,0.122437,0.109144,0.0952632,0.0807528,0.065569,0.0496636,0.0329851,0.0154781,-0.00291628,-0.0222602
0.0745368,0.0877089,0.0995803,0.110287,0.11996,0.128727,0.136707,0.144014,0.150755,0.157027,0.162921,0.168519,0.173894,0.179113,0.184234,0.189306,0.194371,0.199467,0.20462,0.209853,0.215183,0.220621,0.226171,0.231836,0.237612,0.243492,0.249468,0.255526,0.261652,0.267828,0.274037,0.280258,0.286473,0.292659,0.298797,0.304864,0.310842,0.316709,0.322446,0.328036,0.333462,0.338706,0.343755,0.348596,0.353217,0.357607,0.361758,0.365664,0.369317,0.372715,0.375855,0.378735,0.381356,0.38372,0.385828,0.387686,0.389299,0.390671,0.391809,0.392722,0.393417,0.393902,0.394186,0.394279,0.394189,0.393925,0.393497,0.392913,0.392182,0.391311,0.390308,0.389179,0.387931,0.386569,0.385097,0.383519,0.381837,0.380052,0.378164,0.376175,0.37408,0.371879,0.369567,0.367139,0.36459,0.361913,0.359102,0.356147,0.35304,0.349772,0.346333,0.342712,0.338898,0.334881,0.330649,0.32619,0.321493,0.316546,0.311338,0.305858,0.300093,0.294033,0.287665,0.28098,0.273964,0.266607,0.258896,0.25082,0.242365,0.233518,0.224265,0.21459,0.204477,0.193907,0.182861,0.171318,0.159253,0.14664,0.133452,0.119658,0.105223,0.0901107,0.0742826,0.0576959,0.0403052,0.0220625,0.00291737,-0.0171826
0.0915914,0.104042,0.115216,0.125245,0.134257,0.142374,0.149712,0.156384,0.162491,0.16813,0.17339,0.178351,0.183086,0.18766,0.192131,0.196549,0.200955,0.205386,0.209871,0.214432,0.219085,0.223843,0.228712,0.233693,0.238784,0.243979,0.249269,0.254643,0.260085,0.265581,0.271112,0.27666,0.282205,0.287727,0.293207,0.298624,0.303958,0.309192,0.314307,0.319286,0.324113,0.328773,0.333254,0.337543,0.34163,0.345507,0.349166,0.352603,0.355812,0.358793,0.361544,0.364065,0.366359,0.368429,0.370279,0.371914,0.373341,0.374568,0.375602,0.376452,0.377127,0.377636,0.37799,0.378197,0.378267,0.37821,0.378036,0.377752,0.377367,0.376888,0.376323,0.375676,0.374955,0.374161,0.373298,0.372369,0.371372,0.370309,0.369177,0.367974,0.366694,0.365333,0.363883,0.362338,0.360687,0.358922,0.357032,0.355004,0.352826,0.350485,0.347968,0.345259,0.342344,0.339208,0.335836,0.332212,0.328322,0.324149,0.319678,0.314895,0.309784,0.304331,0.298522,0.292342,0.285776,0.278813,0.271436,0.263632,0.255388,0.246687,0.237516,0.227858,0.217697,0.207015,0.195794,0.184012,0.171647,0.158677,0.145075,0.130813,0.115862,0.100188,0.0837579,0.0665341,0.0484779,0.0295482,0.00970262,-0.0111021
0.110061,0.121666,0.132022,0.141256,0.149491,0.156849,0.163442,0.169379,0.17476,0.17968,0.184226,0.188478,0.192505,0.196374,0.200141,0.203855,0.207558,0.211285,0.215067,0.218924,0.222875,0.226931,0.231099,0.23538,0.239772,0.244271,0.248868,0.253551,0.258306,0.263118,0.26797,0.272844,0.277721,0.282582,0.287408,0.292179,0.296878,0.301486,0.305985,0.310361,0.314599,0.318685,0.322607,0.326355,0.329921,0.333297,0.336477,0.339458,0.342238,0.344815,0.347192,0.349369,0.35135,0.35314,0.354746,0.356174,0.357432,0.358528,0.359472,0.360273,0.360943,0.36149,0.361926,0.362261,0.362504,0.362666,0.362756,0.362783,0.362755,0.362678,0.362559,0.362403,0.362215,0.361996,0.361749,0.361473,0.361168,0.360831,0.360458,0.360043,0.359581,0.359062,0.358477,0.357815,0.357065,0.356213,0.355244,0.354145,0.352897,0.351485,0.34989,0.348095,0.346081,0.343829,0.341321,0.338536,0.335455,0.33206,0.328332,0.324253,0.319803,0.314966,0.309723,0.304058,0.297955,0.291396,0.284366,0.27685,0.268831,0.260294,0.251223,0.241603,0.231415,0.220644,0.20927,0.197275,0.184639,0.17134,0.157354,0.142658,0.127223,0.111024,0.0940284,0.0762062,0.0575241,0.0379482,0.0174436,-0.00402436
0.129916,0.140561,0.149982,0.158308,0.165658,0.172151,0.177898,0.183005,0.187571,0.191689,0.195443,0.198913,0.202167,0.20527,0.208277,0.211238,0.214192,0.217177,0.22022,0.223343,0.226564,0.229895,0.233341,0.236904,0.240584,0.244375,0.248268,0.252252,0.256314,0.260439,0.26461,0.268809,0.273019,0.27722,0.281395,0.285525,0.289591,0.293578,0.297469,0.301249,0.304906,0.308425,0.311798,0.315016,0.318069,0.320954,0.323667,0.326204,0.328565,0.330752,0.332765,0.33461,0.336292,0.337816,0.339191,0.340424,0.341524,0.342503,0.34337,0.344135,0.344811,0.345409,0.345938,0.346412,0.346839,0.34723,0.347595,0.347942,0.348279,0.348612,0.348948,0.34929,0.349641,0.350004,0.350378,0.350763,0.351154,0.351548,0.351938,0.352318,0.352676,0.353004,0.353288,0.353515,0.353669,0.353734,0.353692,0.353525,0.353212,0.352734,0.352069,0.351194,0.350088,0.348727,0.347089,0.345151,0.34289,0.340283,0.337308,0.333943,0.330166,0.325957,0.321294,0.316159,0.310532,0.304394,0.297728,0.290516,0.282741,0.274387,0.265437,0.255874,0.245682,0.234844,0.223343,0.211161,0.198279,0.184678,0.170337,0.155235,0.139349,0.122654,0.105126,0.0867381,0.0674637,0.047275,0.0261446,0.00404555
0.151131,0.160702,0.16908,0.176388,0.182748,0.188275,0.193079,0.197264,0.200928,0.204162,0.207049,0.209665,0.212081,0.214359,0.216552,0.21871,0.220872,0.223073,0.225341,0.227699,0.230162,0.232742,0.235445,0.238274,0.241225,0.244294,0.247473,0.25075,0.254112,0.257544,0.26103,0.264553,0.268094,0.271636,0.275161,0.278651,0.28209,0.28546,0.288747,0.291937,0.295018,0.297979,0.30081,0.303503,0.306054,0.308457,0.310711,0.312813,0.314766,0.316571,0.318233,0.319757,0.321149,0.322417,0.323571,0.32462,0.325574,0.326446,0.327245,0.327985,0.328678,0.329335,0.329968,0.330589,0.331209,0.331838,0.332485,0.33316,0.33387,0.33462,0.335417,0.336263,0.337161,0.338112,0.339113,0.340163,0.341256,0.342387,0.343547,0.344726,0.345912,0.347092,0.348252,0.349373,0.350438,0.351428,0.352321,0.353095,0.353727,0.354192,0.354466,0.354522,0.354335,0.353878,0.353124,0.352046,0.350619,0.348814,0.346608,0.343973,0.340885,0.337321,0.333256,0.328668,0.323536,0.317839,0.311556,0.30467,0.29716,0.28901,0.280202,0.27072,0.260547,0.249666,0.238062,0.225717,0.212615,0.198738,0.184068,0.168588,0.152276,0.135114,0.117081,0.0981551,0.0783155,0.0575409,0.0358104,0.0131044
0.173676,0.182067,0.189294,0.195482,0.200751,0.205214,0.208981,0.212155,0.214832,0.217102,0.219047,0.220743,0.222256,0.223649,0.224975,0.22628,0.227605,0.228983,0.230441,0.232,0.233677,0.235482,0.23742,0.239494,0.2417,0.244034,0.246487,0.249046,0.251701,0.254434,0.25723,0.260073,0.262944,0.265826,0.268701,0.271553,0.274364,0.277121,0.279807,0.282412,0.284922,0.287329,0.289624,0.2918,0.293854,0.295783,0.297584,0.29926,0.300812,0.302244,0.303562,0.304772,0.305883,0.306905,0.307846,0.308719,0.309535,0.310308,0.311048,0.31177,0.312487,0.313211,0.313954,0.31473,0.315549,0.316422,0.317358,0.318367,0.319455,0.320629,0.321892,0.323249,0.324699,0.326242,0.327877,0.329598,0.331399,0.333272,0.335208,0.337193,0.339214,0.341255,0.343298,0.345323,0.34731,0.349235,0.351073,0.352801,0.354389,0.355812,0.357039,0.358042,0.35879,0.359253,0.3594,0.359202,0.358626,0.357644,0.356226,0.354343,0.351966,0.349068,0.345623,0.341606,0.336992,0.331759,0.325883,0.319345,0.312125,0.304203,0.295562,0.286185,0.276055,0.265156,0.253473,0.24099,0.227692,0.213564,0.19859,0.182755,0.166043,0.148438,0.129923,0.110482,0.0900991,0.0687591,0.0464475,0.0231513
0.197524,0.204632,0.210607,0.215574,0.219653,0.222958,0.225598,0.227674,0.229283,0.230512,0.231442,0.232148,0.232697,0.233147,0.233552,0.233956,0.234399,0.234914,0.235525,0.236254,0.237116,0.238119,0.23927,0.240569,0.242014,0.243597,0.245311,0.247143,0.24908,0.251108,0.253209,0.255367,0.257564,0.259784,0.262009,0.264222,0.266407,0.268551,0.270639,0.27266,0.274603,0.27646,0.278223,0.279887,0.281449,0.282908,0.284263,0.285517,0.286674,0.287739,0.288719,0.289622,0.290459,0.291239,0.291974,0.292677,0.293361,0.294039,0.294726,0.295435,0.296181,0.296977,0.297836,0.298771,0.299793,0.300915,0.302144,0.303491,0.304962,0.306562,0.308297,0.310167,0.312173,0.314315,0.316587,0.318985,0.3215,0.324123,0.326841,0.32964,0.332505,0.335416,0.338352,0.341293,0.344213,0.347086,0.349885,0.352581,0.355143,0.35754,0.35974,0.361708,0.363412,0.364817,0.365889,0.366592,0.366893,0.366758,0.366154,0.365048,0.363408,0.361204,0.358407,0.354987,0.350919,0.346176,0.340735,0.334573,0.327669,0.320003,0.311555,0.302309,0.292248,0.281357,0.26962,0.257024,0.243554,0.229199,0.213944,0.197777,0.180686,0.162657,0.14368,0.123743,0.102834,0.0809444,0.0580645,0.0341884
0.222648,0.228372,0.232996,0.236645,0.23944,0.241495,0.24292,0.243815,0.244275,0.244388,0.244233,0.243884,0.243406,0.242857,0.242288,0.241743,0.241261,0.240872,0.240601,0.240467,0.240483,0.24066,0.241,0.241504,0.242169,0.242987,0.243948,0.245041,0.246252,0.247565,0.248964,0.250432,0.251952,0.253506,0.255078,0.256651,0.25821,0.259742,0.261232,0.262671,0.264049,0.265357,0.26659,0.267745,0.268818,0.26981,0.270723,0.271559,0.272325,0.273026,0.273672,0.274272,0.274837,0.275379,0.275911,0.276447,0.277002,0.27759,0.278226,0.278925,0.279703,0.280573,0.281549,0.282645,0.283873,0.285245,0.28677,0.288456,0.290312,0.292342,0.294549,0.296936,0.299503,0.302245,0.30516,0.308239,0.311474,0.314852,0.318361,0.321983,0.325701,0.329492,0.333335,0.337204,0.341072,0.34491,0.348686,0.352369,0.355925,0.359318,0.362513,0.365471,0.368156,0.370529,0.372552,0.374186,0.375393,0.376136,0.376376,0.376078,0.375207,0.373729,0.37161,0.368821,0.36533,0.36111,0.356135,0.35038,0.343823,0.336441,0.328216,0.31913,0.309166,0.298309,0.286544,0.27386,0.260243,0.245683,0.230168,0.21369,0.196239,0.177806,0.158384,0.137965,0.116543,0.094113,0.0706728,0.0462212