0,0,0,0,0,0,0,0,0,0,0,0,0,0,0,0,0,0,0,0,0,0,0,0,0,0,0,0,0,0,0,0,0,0,0,0,0,0,0,0,0,0,0,0,0,0,0,0,0,0,0,0,0,0,0,0,0,0,0,0,0,0,0,0,0,0,0,0,0,0,0,0,0,0,0,0,0,0,0,0,0,0,0,0,0,0,0,0,0,0,0,0,0,0,0,0,0,0,0,0,0,0,0,0,0,0,0,0,0,0,0,0,0,0,0,0,0,0,0,0,0,0,0,0,0,0,0,0
0,5.69921e-06,1.75284e-05,3.04232e-05,4.05454e-05,4.52841e-05,4.29846e-05,3.26761e-05,1.38634e-05,-1.36214e-05,-4.97209e-05,-9.42229e-05,-0.00014681,-0.000207094,-0.000274643,-0.000348993,-0.000429672,-0.000516198,-0.000608095,-0.000704893,-0.000806134,-0.000911372,-0.00102018,-0.00113214,-0.00124686,-0.00136396,-0.00148308,-0.00160386,-0.00172598,-0.00184912,-0.00197296,-0.00209722,-0.00222162,-0.00234587,-0.00246972,-0.0025929,-0.00271516,-0.00283626,-0.00295595,-0.003074,-0.00319016,-0.0033042,-0.00341589,-0.003525,-0.00363128,-0.00373452,-0.00383448,-0.00393092,-0.00402362,-0.00411235,-0.00419687,-0.00427695,-0.00435237,-0.00442291,-0.00448834,-0.00454845,-0.00460302,-0.00465185,-0.00469475,-0.00473151,-0.00476197,-0.00478595,-0.0048033,-0.00481388,-0.00481755,-0.00481421,-0.00480376,-0.00478614,-0.00476128,-0.00472916,-0.00468976,-0.00464312,-0.00458926,-0.00452826,-0.00446021,-0.00438523,-0.00430348,-0.00421513,-0.00412039,-0.00401951,-0.00391275,-0.00380039,-0.00368278,-0.00356026,-0.0034332,-0.00330201,-0.00316712,-0.00302897,-0.00288804,-0.00274482,-0.00259982,-0.00245355,-0.00230655,-0.00215937,-0.00201256,-0.00186667,-0.00172228,-0.00157992,-0.00144017,-0.00130358,-0.00117067,-0.00104197,-0.000918007,-0.000799261,-0.000686206,-0.000579286,-0.000478919,-0.000385491,-0.000299354,-0.000220818,-0.000150153,-8.75804e-05,-3.32687e-05,1.26732e-05,5.02042e-05,7.93603e-05,0.000100267,0.000113158,0.000118394,0.000116493,0.000108169,9.43869e-05,7.64282e-05,5.59817e-05,3.52372e-05,1.69416e-05,4.25748e-06,0
0,8.92189e-06,2.47723e-05,4.01422e-05,4.95248e-05,4.89424e-05,3.56786e-05,8.00952e-06,-3.50368e-05,-9.38756e-05,-0.000168515,-0.000258671,-0.000363849,-0.000483407,-0.000616603,-0.00076263,-0.000920641,-0.00108977,-0.00126914,-0.00145789,-0.00165517,-0.00186015,-0.002072,-0.00228997,-0.00251328,-0.00274121,-0.00297306,-0.00320817,-0.00344588,-0.00368559,-0.00392668,-0.00416859,-0.00441076,-0.00465265,-0.00489375,-0.00513354,-0.00537152,-0.00560721,-0.00584013,-0.00606982,-0.00629579,-0.00651759,-0.00673476,-0.00694685,-0.00715339,-0.00735394,-0.00754804,-0.00773525,-0.0079151,-0.00808716,-0.00825097,-0.0084061,-0.00855211,-0.00868856,-0.00881503,-0.00893112,-0.0090364,-0.0091305,-0.00921303,-0.00928364,-0.00934198,-0.00938775,-0.00942063,-0.00944038,-0.00944674,-0.00943952,-0.00941855,-0.0093837,-0.00933487,-0.009272,-0.00919511,-0.00910422,-0.00899943,-0.00888086,-0.00874873,-0.00860325,-0.00844475,-0.00827355,-0.00809008,-0.00789479,-0.0076882,-0.00747088,-0.00724345,-0.00700659,-0.00676102,-0.00650751,-0.00624688,-0.00598,-0.00570776,-0.00543111,-0.005151,-0.00486844,-0.00458444,-0.00430005,-0.00401631,-0.00373429,-0.00345506,-0.00317968,-0.0029092,-0.00264466,-0.0023871,-0.00213751,-0.00189686,-0.00166608,-0.00144606,-0.00123765,-0.00104163,-0.000858714,-0.000689569,-0.000534772,-0.000394815,-0.0002701,-0.000160922,-6.74612e-05,1.02359e-05,7.22724e-05,0.000118925,0.000150671,0.000168229,0.0001726,0.000165129,0.000147577,0.000122204,9.18601e-05,6.00547e-05,3.09578e-05,9.26491e-06,0
0,8.99907e-06,2.31656e-05,3.38672e-05,3.48113e-05,2.13768e-05,-9.71368e-06,-6.06427e-05,-0.000132718,-0.000226563,-0.000342276,-0.000479561,-0.000637824,-0.000816257,-0.0010139,-0.00122968,-0.00146247,-0.00171109,-0.00197434,-0.00225101,-0.00253994,-0.00283993,-0.00314987,-0.00346862,-0.00379513,-0.00412833,-0.00446724,-0.00481088,-0.00515832,-0.00550865,-0.005861,-0.00621455,-0.00656846,-0.00692195,-0.00727425,-0.00762462,-0.00797232,-0.00831663,-0.00865685,-0.00899228,-0.00932223,-0.00964602,-0.00996298,-0.0102724,-0.0105737,-0.0108661,-0.0111491,-0.0114219,-0.0116838,-0.0119343,-0.0121727,-0.0123983,-0.0126105,-0.0128087,-0.0129923,-0.0131607,-0.0133133,-0.0134495,-0.0135688,-0.0136707,-0.0137547,-0.0138203,-0.0138672,-0.013895,-0.0139033,-0.0138918,-0.0138604,-0.0138088,-0.0137369,-0.0136447,-0.0135321,-0.0133993,-0.0132463,-0.0130734,-0.0128809,-0.0126691,-0.0124384,-0.0121894,-0.0119227,-0.011639,-0.0113389,-0.0110233,-0.0106931,-0.0103493,-0.00999292,-0.00962508,-0.00924696,-0.0088598,-0.00846487,-0.00806353,-0.00765717,-0.00724721,-0.00683512,-0.00642237,-0.00601048,-0.00560097,-0.00519535,-0.00479515,-0.00440188,-0.00401702,-0.00364203,-0.00327835,-0.00292734,-0.00259034,-0.00226861,-0.00196335,-0.00167566,-0.00140656,-0.00115699,-0.000927735,-0.000719494,-0.000532811,-0.000368082,-0.000225532,-0.000105195,-6.89084e-06,6.98053e-05,0.0001256,0.000161523,0.000178983,0.000179826,0.00016641,0.000141674,0.000109217,7.33393e-05,3.90798e-05,1.22784e-05,0
0,6.87877e-06,1.51157e-05,1.58805e-05,2.66317e-06,-2.93659e-05,-8.36994e-05,-0.000162728,-0.000267934,-0.000400065,-0.000559277,-0.00074527,-0.000957386,-0.0011947,-0.00145609,-0.00174028,-0.00204591,-0.00237156,-0.00271575,-0.00307702,-0.00345389,-0.00384489,-0.00424861,-0.00466363,-0.00508859,-0.00552216,-0.00596307,-0.00641007,-0.00686196,-0.00731757,-0.00777578,-0.0082355,-0.00869567,-0.00915526,-0.00961327,-0.0100687,-0.0105206,-0.0109681,-0.0114102,-0.011846,-0.0122746,-0.0126951,-0.0131066,-0.0135083,-0.0138993,-0.0142787,-0.0146456,-0.0149993,-0.0153388,-0.0156633,-0.0159719,-0.0162639,-0.0165385,-0.0167947,-0.0170319,-0.0172493,-0.0174461,-0.0176217,-0.0177752,-0.0179062,-0.018014,-0.0180979,-0.0181575,-0.0181924,-0.0182021,-0.0181862,-0.0181445,-0.0180767,-0.0179828,-0.0178626,-0.0177161,-0.0175435,-0.017345,-0.0171208,-0.0168713,-0.0165971,-0.0162985,-0.0159764,-0.0156315,-0.0152646,-0.0148767,-0.014469,-0.0140424,-0.0135984,-0.0131381,-0.0126632,-0.0121749,-0.011675,-0.0111651,-0.0106469,-0.0101222,-0.00959272,-0.00906042,-0.00852716,-0.00799486,-0.00746545,-0.00694088,-0.00642307,-0.00591395,-0.0054154,-0.00492928,-0.00445739,-0.0040015,-0.00356327,-0.00314431,-0.00274613,-0.00237013,-0.00201759,-0.00168967,-0.00138737,-0.00111155,-0.000862886,-0.000641844,-0.000448687,-0.000283433,-0.000145831,-3.53243e-05,4.89837e-05,0.000108377,0.000144579,0.000159807,0.000156837,0.000139066,0.00011057,7.61645e-05,4.15013e-05,1.33003e-05,0
0,3.41175e-06,2.73326e-06,-1.03089e-05,-4.19847e-05,-9.70123e-05,-0.000178848,-0.000289893,-0.00043166,-0.000604919,-0.000809834,-0.00104608,-0.00131293,-0.00160936,-0.00193413,-0.0022858,-0.00266282,-0.00306356,-0.00348633,-0.00392943,-0.00439112,-0.00486971,-0.00536351,-0.00587085,-0.00639013,-0.00691975,-0.00745818,-0.00800394,-0.00855556,-0.00911165,-0.00967084,-0.0102318,-0.0107933,-0.011354,-0.0119127,-0.0124682,-0.0130193,-0.013565,-0.014104,-0.0146352,-0.0151576,-0.01567,-0.0161714,-0.0166607,-0.0171368,-0.0175986,-0.0180452,-0.0184755,-0.0188884,-0.0192829,-0.0196581,-0.0200128,-0.0203462,-0.0206572,-0.0209449,-0.0212084,-0.0214468,-0.0216593,-0.021845,-0.0220032,-0.022133,-0.022234,-0.0223054,-0.0223466,-0.0223573,-0.022337,-0.0222853,-0.022202,-0.022087,-0.0219402,-0.0217617,-0.0215515,-0.0213099,-0.0210372,-0.020734,-0.0204008,-0.0200383,-0.0196473,-0.0192288,-0.0187838,-0.0183134,-0.0178189,-0.0173018,-0.0167635,-0.0162057,-0.01563,-0.0150383,-0.0144324,-0.0138143,-0.0131862,-0.01255,-0.0119081,-0.0112625,-0.0106156,-0.00996973,-0.00932711,-0.00869007,-0.00806094,-0.00744199,-0.0068355,-0.00624367,-0.00566866,-0.00511255,-0.00457735,-0.00406495,-0.00357716,-0.00311562,-0.00268187,-0.00227727,-0.001903,-0.00156007,-0.00124925,-0.000971094,-0.000725892,-0.000513652,-0.000334065,-0.000186475,-6.9838e-05,1.73202e-05,7.69499e-05,0.000111529,0.000124115,0.000118401,9.87709e-05,7.03823e-05,3.93049e-05,1.28153e-05,0
0,-8.37496e-07,-1.24244e-05,-4.20292e-05,-9.53386e-05,-0.000176707,-0.000289356,-0.000435539,-0.00061667,-0.000833453,-0.00108599,-0.0013739,-0.00169637,-0.00205229,-0.00244029,-0.00285879,-0.0033061,-0.0037804,-0.00427983,-0.00480245,-0.00534636,-0.00590961,-0.00649031,-0.00708656,-0.00769652,-0.00831838,-0.00895038,-0.00959079,-0.0102379,-0.0108902,-0.011546,-0.0122038,-0.0128621,-0.0135193,-0.0141742,-0.0148252,-0.0154711,-0.0161104,-0.0167418,-0.017364,-0.0179758,-0.0185757,-0.0191627,-0.0197353,-0.0202924,-0.0208327,-0.021355,-0.0218581,-0.0223407,-0.0228018,-0.0232399,-0.0236542,-0.0240433,-0.0244061,-0.0247417,-0.0250488,-0.0253266,-0.0255739,-0.0257899,-0.0259737,-0.0261244,-0.0262413,-0.0263236,-0.0263708,-0.0263823,-0.0263576,-0.0262964,-0.0261984,-0.0260635,-0.0258915,-0.0256825,-0.0254367,-0.0251544,-0.0248361,-0.0244821,-0.0240934,-0.0236706,-0.0232146,-0.0227267,-0.022208,-0.0216598,-0.0210837,-0.0204812,-0.0198541,-0.0192042,-0.0185336,-0.0178443,-0.0171384,-0.0164183,-0.0156863,-0.0149449,-0.0141966,-0.0134439,-0.0126895,-0.0119359,-0.0111858,-0.010442,-0.00970695,-0.0089834,-0.0082739,-0.007581,-0.00690718,-0.00625482,-0.00562622,-0.00502356,-0.00444888,-0.00390409,-0.00339092,-0.00291093,-0.00246547,-0.00205567,-0.00168241,-0.00134632,-0.00104773,-0.000786629,-0.000562692,-0.000375187,-0.00022297,-0.000104437,-1.74865e-05,4.05286e-05,7.2843e-05,8.333e-05,7.65611e-05,5.78954e-05,3.36305e-05,1.12747e-05,0
0,-5.51911e-06,-2.92812e-05,-7.73327e-05,-0.000154552,-0.000264737,-0.00041072,-0.000594473,-0.000817208,-0.00107948,-0.00138126,-0.00172206,-0.00210098,-0.00251678,-0.00296798,-0.00345287,-0.00396962,-0.00451626,-0.00509075,-0.005691,-0.0063149,-0.00696033,-0.00762519,-0.00830738,-0.00900487,-0.00971563,-0.0104377,-0.0111691,-0.0119081,-0.0126527,-0.0134011,-0.0141517,-0.0149028,-0.0156526,-0.0163995,-0.017142,-0.0178784,-0.0186072,-0.019327,-0.0200362,-0.0207333,-0.0214169,-0.0220856,-0.0227378,-0.0233721,-0.0239873,-0.0245818,-0.0251543,-0.0257034,-0.0262277,-0.0267259,-0.0271968,-0.0276389,-0.0280511,-0.0284322,-0.0287808,-0.0290959,-0.0293764,-0.0296212,-0.0298293,-0.0299998,-0.0301318,-0.0302246,-0.0302775,-0.0302898,-0.0302611,-0.0301909,-0.030079,-0.0299252,-0.0297294,-0.0294917,-0.0292124,-0.0288917,-0.0285301,-0.0281283,-0.0276871,-0.0272073,-0.0266901,-0.0261366,-0.0255483,-0.0249267,-0.0242734,-0.0235902,-0.0228792,-0.0221423,-0.0213819,-0.0206001,-0.0197996,-0.0189829,-0.0181525,-0.0173112,-0.0164619,-0.0156074,-0.0147507,-0.0138946,-0.0130421,-0.0121963,-0.01136,-0.0105363,-0.00972798,-0.00893795,-0.00816895,-0.00742365,-0.00670462,-0.00601429,-0.00535495,-0.00472871,-0.00413752,-0.0035831,-0.00306696,-0.00259037,-0.0021543,-0.00175945,-0.00140619,-0.00109456,-0.000824186,-0.00059432,-0.000403756,-0.000250816,-0.000133307,-4.849e-05,6.96656e-06,3.70274e-05,4.63502e-05,4.03705e-05,2.5436e-05,9.01686e-06,0
0,-1.04185e-05,-4.71119e-05,-0.000114834,-0.000217526,-0.000358299,-0.000539476,-0.000762642,-0.00102872,-0.00133803,-0.00169037,-0.00208509,-0.00252116,-0.00299721,-0.00351163,-0.0040626,-0.00464813,-0.00526611,-0.00591436,-0.00659064,-0.00729265,-0.00801813,-0.00876477,-0.00953034,-0.0103126,-0.0111093,-0.0119183,-0.0127376,-0.013565,-0.0143985,-0.0152361,-0.016076,-0.0169161,-0.0177548,-0.0185901,-0.0194203,-0.0202436,-0.0210584,-0.0218629,-0.0226554,-0.0234343,-0.024198,-0.0249448,-0.0256732,-0.0263816,-0.0270683,-0.0277319,-0.0283708,-0.0289834,-0.0295683,-0.030124,-0.030649,-0.0311418,-0.0316012,-0.0320257,-0.032414,-0.0327649,-0.0330771,-0.0333495,-0.0335809,-0.0337704,-0.0339171,-0.03402,-0.0340785,-0.0340918,-0.0340594,-0.033981,-0.0338561,-0.0336846,-0.0334665,-0.0332018,-0.0328908,-0.0325338,-0.0321315,-0.0316846,-0.0311938,-0.0306602,-0.030085,-0.0294696,-0.0288154,-0.0281242,-0.0273978,-0.0266382,-0.0258476,-0.0250282,-0.0241825,-0.0233131,-0.0224226,-0.0215139,-0.0205898,-0.0196534,-0.0187078,-0.0177562,-0.0168016,-0.0158474,-0.0148968,-0.0139531,-0.0130196,-0.0120995,-0.0111959,-0.010312,-0.00945083,-0.00861532,-0.00780827,-0.00703236,-0.00629011,-0.00558382,-0.00491564,-0.00428746,-0.00370094,-0.00315746,-0.00265812,-0.00220368,-0.00179458,-0.00143087,-0.00111223,-0.00083789,-0.000606623,-0.000416724,-0.000265967,-0.000151578,-7.01961e-05,-1.78399e-05,1.01471e-05,1.91665e-05,1.54667e-05,6.28276e-06,0
0,-1.54035e-05,-6.54327e-05,-0.000153561,-0.000282736,-0.000455303,-0.000672986,-0.000936907,-0.00124762,-0.00160515,-0.00200907,-0.00245852,-0.00295231,-0.00348892,-0.00406659,-0.00468337,-0.00533714,-0.00602564,-0.00674655,-0.00749749,-0.00827602,-0.0090797,-0.0099061,-0.0107528,-0.0116174,-0.0124975,-0.0133908,-0.014295,-0.0152078,-0.0161272,-0.0170509,-0.0179768,-0.0189029,-0.0198271,-0.0207475,-0.0216621,-0.0225691,-0.0234664,-0.0243523,-0.0252249,-0.0260824,-0.0269231,-0.027745,-0.0285466,-0.029326,-0.0300815,-0.0308114,-0.031514,-0.0321876,-0.0328307,-0.0334415,-0.0340185,-0.0345601,-0.0350649,-0.0355312,-0.0359577,-0.036343,-0.0366858,-0.0369849,-0.0372389,-0.0374469,-0.0376079,-0.0377208,-0.037785,-0.0377996,-0.0377642,-0.0376782,-0.0375414,-0.0373535,-0.0371145,-0.0368244,-0.0364837,-0.0360927,-0.035652,-0.0351623,-0.0346247,-0.0340402,-0.0334102,-0.0327361,-0.0320195,-0.0312623,-0.0304665,-0.0296343,-0.028768,-0.0278701,-0.0269432,-0.0259901,-0.0250138,-0.0240172,-0.0230036,-0.0219762,-0.0209384,-0.0198935,-0.018845,-0.0177965,-0.0167514,-0.0157134,-0.0146859,-0.0136724,-0.0126765,-0.0117014,-0.0107505,-0.00982696,-0.0089338,-0.00807394,-0.0072501,-0.0064648,-0.00572034,-0.0050188,-0.00436197,-0.00375138,-0.00318821,-0.00267334,-0.00220727,-0.00179012,-0.00142158,-0.00110092,-0.00082694,-0.000597937,-0.0004117,-0.000265468,-0.000155911,-7.90911e-05,-3.0429e-05,-4.64941e-06,4.28348e-06,3.24177e-06,0
0,-2.0392e-05,-8.39227e-05,-0.000192839,-0.000349087,-0.000554204,-0.000809261,-0.00111485,-0.00147111,-0.00187772,-0.00233396,-0.00283875,-0.00339068,-0.00398807,-0.00462899,-0.00531135,-0.00603287,-0.00679119,-0.00758382,-0.00840826,-0.00926191,-0.0101422,-0.0110466,-0.0119724,-0.0129172,-0.0138784,-0.0148536,-0.0158402,-0.016836,-0.0178385,-0.0188455,-0.0198546,-0.0208637,-0.0218706,-0.0228731,-0.0238692,-0.0248568,-0.0258338,-0.0267982,-0.027748,-0.0286813,-0.029596,-0.0304904,-0.0313625,-0.0322103,-0.0330321,-0.0338259,-0.03459,-0.0353225,-0.0360216,-0.0366857,-0.0373129,-0.0379016,-0.0384502,-0.038957,-0.0394205,-0.0398393,-0.0402118,-0.0405368,-0.040813,-0.0410393,-0.0412144,-0.0413375,-0.0414077,-0.0414242,-0.0413864,-0.0412938,-0.0411461,-0.040943,-0.0406846,-0.040371,-0.0400024,-0.0395794,-0.0391025,-0.0385726,-0.0379907,-0.0373581,-0.0366761,-0.0359463,-0.0351704,-0.0343505,-0.0334887,-0.0325872,-0.0316487,-0.0306758,-0.0296713,-0.0286382,-0.0275796,-0.0264989,-0.0253993,-0.0242844,-0.0231577,-0.022023,-0.0208839,-0.0197442,-0.0186077,-0.0174782,-0.0163594,-0.0152552,-0.0141692,-0.0131051,-0.0120664,-0.0110565,-0.0100787,-0.00913609,-0.00823159,-0.00736795,-0.00654763,-0.00577288,-0.00504563,-0.00436755,-0.00373995,-0.0031638,-0.00263968,-0.0021678,-0.00174791,-0.00137933,-0.00106091,-0.000790996,-0.000567427,-0.000387503,-0.000247966,-0.000144981,-7.41043e-05,-3.0258e-05,-7.69767e-06,1.30113e-08,0
0,-2.53336e-05,-0.00010237,-0.000232203,-0.0004158,-0.000653872,-0.000946811,-0.00129465,-0.00169704,-0.00215329,-0.00266236,-0.00322288,-0.00383322,-0.0044915,-0.00519562,-0.00594332,-0.00673217,-0.00755967,-0.00842321,-0.00932011,-0.0102477,-0.0112032,-0.012184,-0.0131873,-0.0142105,-0.0152508,-0.0163057,-0.0173726,-0.0184489,-0.0195321,-0.0206199,-0.0217097,-0.0227993,-0.0238863,-0.0249683,-0.0260433,-0.0271088,-0.0281628,-0.0292032,-0.0302276,-0.0312342,-0.0322206,-0.033185,-0.0341252,-0.0350393,-0.0359252,-0.0367809,-0.0376044,-0.0383939,-0.0391474,-0.0398631,-0.040539,-0.0411735,-0.0417647,-0.042311,-0.0428106,-0.0432621,-0.0436638,-0.0440144,-0.0443126,-0.0445569,-0.0447464,-0.0448799,-0.0449566,-0.0449756,-0.0449363,-0.0448381,-0.0446807,-0.0444639,-0.0441877,-0.0438521,-0.0434576,-0.0430045,-0.0424936,-0.0419258,-0.0413022,-0.040624,-0.0398926,-0.0391099,-0.0382777,-0.037398,-0.0364731,-0.0355056,-0.034498,-0.0334532,-0.0323743,-0.0312643,-0.0301267,-0.0289648,-0.0277823,-0.0265829,-0.0253704,-0.0241486,-0.0229216,-0.0216934,-0.0204679,-0.0192492,-0.0180414,-0.0168484,-0.0156743,-0.0145228,-0.0133977,-0.0123027,-0.0112412,-0.0102166,-0.00923209,-0.00829046,-0.00739442,-0.00654637,-0.00574842,-0.00500235,-0.00430962,-0.0036713,-0.0030881,-0.00256029,-0.00208773,-0.00166981,-0.00130546,-0.00099311,-0.000730675,-0.000515556,-0.000344609,-0.000214142,-0.000119896,-5.70415e-05,-2.01723e-05,-3.31983e-06,0
0,-3.01975e-05,-0.000120637,-0.000271339,-0.000482324,-0.000753493,-0.00108454,-0.00147491,-0.00192375,-0.00242996,-0.00299213,-0.0036086,-0.00427749,-0.00499668,-0.00576388,-0.00657665,-0.00743242,-0.00832852,-0.00926221,-0.0102307,-0.0112311,-0.0122607,-0.0133165,-0.0143957,-0.0154956,-0.0166133,-0.0177461,-0.0188912,-0.020046,-0.0212079,-0.0223743,-0.0235426,-0.0247104,-0.0258751,-0.0270344,-0.0281858,-0.0293271,-0.0304559,-0.0315698,-0.0326667,-0.0337443,-0.0348004,-0.0358327,-0.0368391,-0.0378174,-0.0387655,-0.0396813,-0.0405627,-0.0414077,-0.0422141,-0.0429801,-0.0437036,-0.0443828,-0.0450158,-0.0456007,-0.0461358,-0.0466195,-0.0470502,-0.0474262,-0.0477462,-0.0480089,-0.0482131,-0.0483575,-0.0484413,-0.0484636,-0.0484237,-0.0483211,-0.0481554,-0.0479263,-0.0476338,-0.047278,-0.0468594,-0.0463783,-0.0458356,-0.0452321,-0.044569,-0.0438476,-0.0430695,-0.0422364,-0.0413504,-0.0404137,-0.0394286,-0.0383977,-0.0373238,-0.03621,-0.0350594,-0.0338753,-0.0326613,-0.031421,-0.0301582,-0.0288768,-0.0275809,-0.0262745,-0.0249618,-0.0236471,-0.0223346,-0.0210287,-0.0197335,-0.0184533,-0.0171923,-0.0159545,-0.0147441,-0.0135648,-0.0124203,-0.0113142,-0.0102498,-0.0092303,-0.00825842,-0.00733678,-0.00646765,-0.00565297,-0.00489432,-0.00419292,-0.00354959,-0.00296472,-0.00243827,-0.00196975,-0.00155817,-0.00120207,-0.000899495,-0.000647961,-0.000444476,-0.000285522,-0.000167061,-8.4542e-05,-3.29204e-05,-6.69843e-06,0
0,-3.49659e-05,-0.000138636,-0.000310034,-0.000548283,-0.000852487,-0.00122165,-0.0016546,-0.00214999,-0.00270626,-0.00332163,-0.00399411,-0.00472153,-0.00550154,-0.00633163,-0.00720918,-0.00813144,-0.0090956,-0.0100988,-0.011138,-0.0122103,-0.0133128,-0.0144424,-0.0155963,-0.0167714,-0.0179649,-0.0191739,-0.0203956,-0.0216271,-0.0228658,-0.0241089,-0.0253537,-0.0265976,-0.0278381,-0.0290726,-0.0302985,-0.0315135,-0.0327149,-0.0339006,-0.0350679,-0.0362147,-0.0373384,-0.0384369,-0.0395078,-0.0405487,-0.0415576,-0.0425321,-0.04347,-0.0443691,-0.0452274,-0.0460427,-0.0468129,-0.047536,-0.0482101,-0.0488332,-0.0494035,-0.0499192,-0.0503786,-0.0507802,-0.0511224,-0.0514037,-0.051623,-0.0517791,-0.0518709,-0.0518975,-0.0518582,-0.0517523,-0.0515796,-0.0513397,-0.0510326,-0.0506585,-0.0502176,-0.0497105,-0.0491379,-0.0485009,-0.0478006,-0.0470383,-0.0462158,-0.0453349,-0.0443976,-0.0434063,-0.0423634,-0.0412717,-0.0401341,-0.0389537,-0.0377339,-0.0364781,-0.03519,-0.0338736,-0.0325327,-0.0311714,-0.0297941,-0.0284049,-0.0270083,-0.0256089,-0.0242109,-0.022819,-0.0214377,-0.0200713,-0.0187244,-0.0174012,-0.016106,-0.0148428,-0.0136156,-0.0124281,-0.0112838,-0.0101861,-0.00913806,-0.00814232,-0.00720137,-0.00631731,-0.00549187,-0.00472643,-0.00402192,-0.00337889,-0.00279741,-0.00227711,-0.00181715,-0.00141618,-0.00107239,-0.000783449,-0.000546535,-0.000358335,-0.000215051,-0.000112428,-4.57865e-05,-1.00829e-05,0
0,-3.96295e-05,-0.000156314,-0.000348153,-0.000613419,-0.000950448,-0.00135755,-0.00183297,-0.00237483,-0.00298109,-0.00364958,-0.00437798,-0.00516381,-0.00600445,-0.00689719,-0.00783917,-0.00882749,-0.00985916,-0.0109311,-0.0120404,-0.0131837,-0.0143581,-0.0155605,-0.0167878,-0.0180369,-0.0193049,-0.0205886,-0.0218853,-0.0231919,-0.0245057,-0.0258238,-0.0271434,-0.0284617,-0.0297762,-0.031084,-0.0323827,-0.0336696,-0.0349421,-0.0361977,-0.0374338,-0.0386481,-0.039838,-0.0410011,-0.042135,-0.0432373,-0.0443056,-0.0453376,-0.0463309,-0.0472833,-0.0481925,-0.0490563,-0.0498726,-0.0506392,-0.051354,-0.052015,-0.0526204,-0.0531681,-0.0536566,-0.054084,-0.0544487,-0.0547494,-0.0549846,-0.0551531,-0.0552538,-0.0552859,-0.0552483,-0.0551407,-0.0549625,-0.0547134,-0.0543934,-0.0540026,-0.0535414,-0.0530102,-0.0524099,-0.0517415,-0.0510061,-0.0502053,-0.0493406,-0.0484141,-0.0474279,-0.0463842,-0.0452859,-0.0441356,-0.0429364,-0.0416916,-0.0404047,-0.0390793,-0.0377192,-0.0363285,-0.0349113,-0.033472,-0.0320148,-0.0305444,-0.0290653,-0.0275823,-0.0261,-0.0246231,-0.0231564,-0.0217046,-0.0202723,-0.018864,-0.0174842,-0.0161372,-0.0148272,-0.0135581,-0.0123336,-0.0111573,-0.0100324,-0.00896188,-0.0079483,-0.00699395,-0.00610076,-0.00527023,-0.00450348,-0.00380119,-0.00316357,-0.00259042,-0.00208101,-0.00163418,-0.00124825,-0.000921082,-0.000650034,-0.000432013,-0.000263477,-0.000140468,-5.86645e-05,-1.34471e-05,0
0,-4.41844e-05,-0.00017364,-0.000385611,-0.000677565,-0.0010471,-0.00149186,-0.00200949,-0.00259757,-0.00325361,-0.00397502,-0.00475913,-0.00560313,-0.00650414,-0.00745919,-0.00846523,-0.00951915,-0.0106178,-0.011758,-0.0129365,-0.0141501,-0.0153955,-0.0166697,-0.0179693,-0.0192913,-0.0206324,-0.0219896,-0.02336,-0.0247403,-0.0261277,-0.0275193,-0.0289121,-0.0303034,-0.0316903,-0.03307,-0.0344399,-0.0357971,-0.0371391,-0.0384632,-0.0397668,-0.0410472,-0.042302,-0.0435285,-0.0447242,-0.0458867,-0.0470135,-0.048102,-0.04915,-0.0501549,-0.0511145,-0.0520264,-0.0528883,-0.0536981,-0.0544535,-0.0551525,-0.0557931,-0.0563732,-0.056891,-0.0573447,-0.0577327,-0.0580534,-0.0583055,-0.0584875,-0.0585983,-0.058637,-0.0586027,-0.0584947,-0.0583126,-0.058056,-0.0577249,-0.0573193,-0.0568396,-0.0562864,-0.0556605,-0.0549627,-0.0541944,-0.0533571,-0.0524524,-0.0514825,-0.0504494,-0.0493556,-0.0482038,-0.046997,-0.0457383,-0.0444311,-0.043079,-0.0416858,-0.0402554,-0.038792,-0.0373001,-0.0357839,-0.0342482,-0.0326977,-0.0311371,-0.0295714,-0.0280054,-0.0264442,-0.0248926,-0.0233556,-0.021838,-0.0203446,-0.0188802,-0.0174491,-0.0160559,-0.0147046,-0.0133993,-0.0121437,-0.0109412,-0.00979492,-0.00870773,-0.00768207,-0.00672003,-0.00582332,-0.0049932,-0.00423052,-0.00353569,-0.00290862,-0.00234879,-0.00185518,-0.00142631,-0.00106021,-0.000754448,-0.000506166,-0.000312074,-0.000168509,-7.14862e-05,-1.67749e-05,0
0,-4.863e-05,-0.000190602,-0.000422362,-0.000740619,-0.00114226,-0.0016243,-0.00218376,-0.00281772,-0.00352322,-0.00429724,-0.00513673,-0.00603857,-0.00699959,-0.00801657,-0.00908624,-0.0102053,-0.0113704,-0.0125781,-0.0138252,-0.0151083,-0.016424,-0.017769,-0.01914,-0.0205338,-0.021947,-0.0233766,-0.0248193,-0.0262721,-0.027732,-0.0291957,-0.0306605,-0.0321233,-0.0335813,-0.0350315,-0.0364712,-0.0378976,-0.0393078,-0.0406992,-0.0420689,-0.0434144,-0.044733,-0.0460219,-0.0472786,-0.0485004,-0.0496849,-0.0508294,-0.0519314,-0.0529884,-0.053998,-0.0549577,-0.0558652,-0.0567182,-0.0575144,-0.0582515,-0.0589276,-0.0595405,-0.0600883,-0.0605691,-0.0609812,-0.061323,-0.0615929,-0.0617896,-0.0619119,-0.0619587,-0.0619291,-0.0618223,-0.061638,-0.0613757,-0.0610353,-0.0606169,-0.0601208,-0.0595475,-0.0588979,-0.0581729,-0.0573738,-0.056502,-0.0555595,-0.0545481,-0.0534702,-0.0523283,-0.0511251,-0.0498636,-0.0485472,-0.0471793,-0.0457636,-0.0443041,-0.0428048,-0.0412702,-0.0397046,-0.0381128,-0.0364995,-0.0348696,-0.0332282,-0.0315803,-0.0299311,-0.0282857,-0.0266493,-0.0250271,-0.023424,-0.0218453,-0.0202957,-0.01878,-0.0173029,-0.0158687,-0.0144817,-0.0131457,-0.0118645,-0.0106415,-0.0094795,-0.00838134,-0.00734925,-0.00638514,-0.00549047,-0.00466626,-0.00391309,-0.00323108,-0.00261987,-0.00207863,-0.00160607,-0.00120041,-0.000859449,-0.000580552,-0.000360682,-0.00019646,-8.4213e-05,-2.00581e-05,0
0,-5.29685e-05,-0.000207197,-0.000458383,-0.000802522,-0.00123583,-0.00175468,-0.00235554,-0.00303495,-0.00378947,-0.00461569,-0.00551016,-0.00646944,-0.00749006,-0.00856852,-0.00970134,-0.010885,-0.0121159,-0.0133907,-0.0147057,-0.0160576,-0.0174427,-0.0188578,-0.0202993,-0.0217639,-0.0232483,-0.0247492,-0.0262633,-0.0277875,-0.0293185,-0.0308534,-0.0323889,-0.0339221,-0.03545,-0.0369697,-0.0384781,-0.0399725,-0.0414498,-0.0429075,-0.0443425,-0.0457521,-0.0471335,-0.0484841,-0.049801,-0.0510817,-0.0523233,-0.0535233,-0.054679,-0.0557878,-0.0568473,-0.0578549,-0.058808,-0.0597044,-0.0605417,-0.0613175,-0.0620297,-0.0626761,-0.0632547,-0.0637635,-0.0642007,-0.0645647,-0.0648538,-0.0650666,-0.0652017,-0.0652582,-0.0652349,-0.0651312,-0.0649465,-0.0646803,-0.0643326,-0.0639033,-0.0633928,-0.0628015,-0.0621303,-0.0613801,-0.0605522,-0.0596482,-0.0586697,-0.057619,-0.0564982,-0.05531,-0.0540572,-0.0527428,-0.0513703,-0.0499433,-0.0484655,-0.046941,-0.045374,-0.0437691,-0.0421309,-0.0404642,-0.038774,-0.0370653,-0.0353434,-0.0336135,-0.0318811,-0.0301515,-0.0284301,-0.0267222,-0.0250332,-0.0233685,-0.021733,-0.0201318,-0.0185698,-0.0170517,-0.0155818,-0.0141643,-0.0128032,-0.011502,-0.0102639,-0.00909191,-0.00798845,-0.00695563,-0.00599513,-0.00510817,-0.00429552,-0.00355751,-0.00289396,-0.00230424,-0.00178726,-0.00134147,-0.000964867,-0.000655046,-0.000409223,-0.000224279,-9.68295e-05,-2.32945e-05,0
0,-5.7203e-05,-0.000223427,-0.000493671,-0.000863252,-0.00132774,-0.0018829,-0.00252465,-0.00324901,-0.00405208,-0.00493001,-0.00587899,-0.00689523,-0.00797495,-0.00911442,-0.0103099,-0.0115576,-0.0128539,-0.014195,-0.0155773,-0.0169972,-0.0184511,-0.0199354,-0.0214466,-0.0229813,-0.0245359,-0.0261072,-0.0276917,-0.0292863,-0.0308876,-0.0324925,-0.0340978,-0.0357005,-0.0372973,-0.0388854,-0.0404616,-0.042023,-0.0435667,-0.0450898,-0.0465892,-0.0480623,-0.049506,-0.0509176,-0.0522943,-0.0536333,-0.0549318,-0.056187,-0.0573963,-0.058557,-0.0596665,-0.0607221,-0.0617212,-0.0626615,-0.0635403,-0.0643555,-0.0651045,-0.0657853,-0.0663957,-0.0669337,-0.0673973,-0.0677848,-0.0680945,-0.0683249,-0.0684746,-0.0685424,-0.0685273,-0.0684285,-0.0682453,-0.0679772,-0.0676242,-0.0671861,-0.0666632,-0.066056,-0.0653653,-0.064592,-0.0637374,-0.0628031,-0.0617908,-0.0607025,-0.0595408,-0.0583081,-0.0570074,-0.0556418,-0.0542147,-0.0527299,-0.0511912,-0.0496029,-0.0479693,-0.046295,-0.0445848,-0.0428438,-0.041077,-0.0392898,-0.0374875,-0.0356756,-0.0338598,-0.0320455,-0.0302386,-0.0284444,-0.0266688,-0.024917,-0.0231946,-0.0215069,-0.0198588,-0.0182553,-0.0167012,-0.0152008,-0.0137582,-0.0123774,-0.0110617,-0.00981434,-0.00863803,-0.00753507,-0.00650736,-0.00555635,-0.00468302,-0.00388789,-0.00317101,-0.00253196,-0.00196985,-0.00148334,-0.00107066,-0.000729626,-0.000457684,-0.000251966,-0.000109338,-2.64863e-05,0
0,-6.13378e-05,-0.000239303,-0.000528233,-0.000922804,-0.00141797,-0.00200891,-0.00269101,-0.00345977,-0.00431083,-0.00523994,-0.00624289,-0.00731556,-0.00845386,-0.00965378,-0.0109113,-0.0122225,-0.0135835,-0.0149904,-0.0164394,-0.0179268,-0.0194487,-0.0210015,-0.0225817,-0.0241855,-0.0258096,-0.0274504,-0.0291046,-0.0307687,-0.0324394,-0.0341135,-0.0357877,-0.0374589,-0.0391239,-0.0407795,-0.0424227,-0.0440505,-0.0456598,-0.0472476,-0.048811,-0.0503469,-0.0518525,-0.0533248,-0.0547609,-0.056158,-0.0575133,-0.0588238,-0.0600868,-0.0612995,-0.0624592,-0.0635632,-0.0646089,-0.0655936,-0.0665148,-0.0673701,-0.0681571,-0.0688733,-0.0695167,-0.0700852,-0.0705766,-0.0709891,-0.071321,-0.0715707,-0.0717367,-0.0718177,-0.0718127,-0.0717208,-0.0715411,-0.0712733,-0.070917,-0.0704722,-0.0699391,-0.0693182,-0.0686101,-0.0678159,-0.0669367,-0.0659741,-0.0649299,-0.0638061,-0.0626052,-0.0613298,-0.0599828,-0.0585674,-0.0570872,-0.0555459,-0.0539475,-0.0522964,-0.0505969,-0.0488539,-0.0470723,-0.0452573,-0.0434142,-0.0415484,-0.0396655,-0.0377713,-0.0358716,-0.0339721,-0.0320788,-0.0301975,-0.0283341,-0.0264942,-0.0246836,-0.0229078,-0.0211721,-0.0194818,-0.0178418,-0.0162567,-0.0147311,-0.0132689,-0.0118739,-0.0105496,-0.00929877,-0.0081241,-0.00702769,-0.00601122,-0.00507591,-0.00422249,-0.00345123,-0.00276195,-0.00215395,-0.00162612,-0.00117691,-0.000804347,-0.00050611,-0.000279548,-0.000121757,-2.96395e-05,0
0,-6.53772e-05,-0.000254834,-0.000562086,-0.000981194,-0.00150652,-0.0021327,-0.00285456,-0.00366714,-0.00456561,-0.00554531,-0.00660165,-0.00773017,-0.00892648,-0.0101863,-0.0115053,-0.0128795,-0.0143046,-0.0157767,-0.0172917,-0.0188458,-0.0204351,-0.0220557,-0.0237041,-0.0253765,-0.0270693,-0.0287789,-0.0305019,-0.0322347,-0.0339741,-0.0357166,-0.037459,-0.039198,-0.0409304,-0.0426529,-0.0443625,-0.0460561,-0.0477304,-0.0493825,-0.0510093,-0.0526078,-0.0541749,-0.0557077,-0.0572032,-0.0586584,-0.0600704,-0.0614363,-0.0627533,-0.0640184,-0.0652289,-0.0663819,-0.0674748,-0.0685048,-0.0694693,-0.0703658,-0.0711917,-0.0719448,-0.0726226,-0.0732229,-0.0737437,-0.0741829,-0.0745388,-0.0748096,-0.0749939,-0.0750902,-0.0750973,-0.0750143,-0.0748404,-0.0745749,-0.0742177,-0.0737685,-0.0732274,-0.072595,-0.0718717,-0.0710587,-0.070157,-0.0691682,-0.0680941,-0.0669367,-0.0656984,-0.064382,-0.0629903,-0.0615266,-0.0599946,-0.058398,-0.0567409,-0.0550277,-0.0532631,-0.051452,-0.0495993,-0.0477105,-0.045791,-0.0438464,-0.0418827,-0.0399056,-0.0379213,-0.0359357,-0.033955,-0.0319854,-0.0300328,-0.0281034,-0.026203,-0.0243375,-0.0225126,-0.0207336,-0.0190059,-0.0173343,-0.0157237,-0.0141782,-0.0127021,-0.0112989,-0.00997177,-0.00872367,-0.00755693,-0.00647347,-0.00547476,-0.00456178,-0.00373502,-0.00299452,-0.00233982,-0.00177001,-0.00128377,-0.000879332,-0.000554586,-0.000307083,-0.000134113,-3.27629e-05,0