-0,-0,-0,-0,-0,-0,-0,-0,-0,-0,-0,-0,-0,-0,-0,-0,-0,-0,-0,-0,-0,-0,-0,-0,-0,-0,-0,-0,-0,-0,-0,-0,-0,-0,-0,-0,-0,-0,-0,-0,-0,-0,-0,-0,-0,-0,-0,-0,-0,-0,-0,-0,-0,-0,-0,-0,-0,-0,-0,-0,-0,-0,-0,-0,-0,-0,-0,-0,-0,-0,-0,-0,-0,-0,-0,-0,-0,-0,-0,-0,-0,-0,-0,-0,-0,-0,-0,-0,-0,-0,-0,-0,-0,-0,-0,-0,-0,-0,-0,-0,-0,-0,-0,-0,-0,-0,-0,-0,-0,-0,-0,-0,-0,-0,-0,-0,-0,-0,-0,-0,-0,-0,-0,-0,-0,-0,-0,-0
-0,-5.69538e-06,-8.89862e-06,-8.93552e-06,-6.76585e-06,-3.26132e-06,9.89403e-07,5.61246e-06,1.03712e-05,1.51142e-05,1.97433e-05,2.41948e-05,2.84282e-05,3.24182e-05,3.61506e-05,3.96186e-05,4.28212e-05,4.57608e-05,4.84429e-05,5.08749e-05,5.30651e-05,5.5023e-05,5.67583e-05,5.82808e-05,5.96004e-05,6.07265e-05,6.16683e-05,6.24343e-05,6.30328e-05,6.3471e-05,6.37558e-05,6.38934e-05,6.3889e-05,6.37477e-05,6.34734e-05,6.30698e-05,6.25397e-05,6.18856e-05,6.11093e-05,6.02122e-05,5.91954e-05,5.80596e-05,5.68051e-05,5.54321e-05,5.39405e-05,5.23303e-05,5.06012e-05,4.87532e-05,4.67862e-05,4.47002e-05,4.24956e-05,4.01728e-05,3.77329e-05,3.5177e-05,3.25068e-05,2.97246e-05,2.68331e-05,2.38355e-05,2.07358e-05,1.75386e-05,1.4249e-05,1.08729e-05,7.41722e-06,3.88917e-06,2.96936e-07,-3.35058e-06,-7.04376e-06,-1.07723e-05,-1.4525e-05,-1.82903e-05,-2.20558e-05,-2.58085e-05,-2.95349e-05,-3.3221e-05,-3.68525e-05,-4.04145e-05,-4.38921e-05,-4.72699e-05,-5.05328e-05,-5.36653e-05,-5.66523e-05,-5.94787e-05,-6.21297e-05,-6.45912e-05,-6.68492e-05,-6.88906e-05,-7.07029e-05,-7.22745e-05,-7.35946e-05,-7.46536e-05,-7.54428e-05,-7.59549e-05,-7.61836e-05,-7.61243e-05,-7.57734e-05,-7.5129e-05,-7.41905e-05,-7.29589e-05,-7.14368e-05,-6.96283e-05,-6.75389e-05,-6.51759e-05,-6.25481e-05,-5.96659e-05,-5.65411e-05,-5.31873e-05,-4.96198e-05,-4.58554e-05,-4.19128e-05,-3.78126e-05,-3.35779e-05,-2.92337e-05,-2.48087e-05,-2.03347e-05,-1.58483e-05,-1.13923e-05,-7.01689e-06,-2.78346e-06,1.23206e-06,4.9328e-06,8.19183e-06,1.08385e-05,1.26384e-05,1.32685e-05,1.23024e-05,9.28955e-06,4.26543e-06,-0
-0,-1.75284e-05,-2.4724e-05,-2.3017e-05,-1.48609e-05,-2.43919e-06,1.2608e-05,2.91212e-05,4.62975e-05,6.35843e-05,8.06015e-05,9.70892e-05,0.000112872,0.000127832,0.000141899,0.000155029,0.000167205,0.000178423,0.000188695,0.000198039,0.000206479,0.000214045,0.000220769,0.000226683,0.000231822,0.000236216,0.0002399,0.000242903,0.000245254,0.000246981,0.000248107,0.000248656,0.000248647,0.000248099,0.000247027,0.000245444,0.000243362,0.000240791,0.000237737,0.000234206,0.000230204,0.000225733,0.000220795,0.000215393,0.000209526,0.000203195,0.000196401,0.000189143,0.000181423,0.000173242,0.000164603,0.000155507,0.000145961,0.000135969,0.000125539,0.00011468,0.000103405,9.17263e-05,7.96598e-05,6.72241e-05,5.444e-05,4.1331e-05,2.79233e-05,1.4246e-05,3.30703e-07,-1.3788e-05,-2.80729e-05,-4.2484e-05,-5.69788e-05,-7.15123e-05,-8.60371e-05,-0.000100504,-0.00011486,-0.000129054,-0.00014303,-0.000156731,-0.000170101,-0.000183083,-0.000195618,-0.000207648,-0.000219115,-0.000229964,-0.000240137,-0.000249582,-0.000258247,-0.000266081,-0.000273038,-0.000279075,-0.00028415,-0.000288228,-0.000291276,-0.000293267,-0.000294179,-0.000293992,-0.000292695,-0.000290281,-0.000286748,-0.0002821,-0.000276349,-0.000269509,-0.000261603,-0.000252659,-0.000242712,-0.000231802,-0.000219976,-0.000207287,-0.000193794,-0.000179565,-0.000164674,-0.000149201,-0.000133237,-0.000116884,-0.000100254,-8.3473e-05,-6.6687e-05,-5.00632e-05,-3.37981e-05,-1.81266e-05,-3.33435e-06,1.0225e-05,2.21059e-05,3.17409e-05,3.84052e-05,4.1191e-05,3.90401e-05,3.09798e-05,1.69416e-05,-0
-0,-3.04677e-05,-4.0119e-05,-3.36881e-05,-1.5566e-05,1.05849e-05,4.19223e-05,7.63279e-05,0.000112256,0.000148593,0.000184539,0.000219528,0.000253164,0.000285172,0.000315374,0.000343656,0.00036996,0.000394261,0.000416568,0.000436905,0.000455317,0.000471855,0.000486579,0.000499553,0.000510842,0.000520513,0.00052863,0.000535255,0.000540449,0.000544266,0.000546759,0.000547974,0.000547954,0.000546737,0.000544356,0.000540841,0.000536215,0.0005305,0.000523712,0.000515866,0.00050697,0.000497034,0.000486064,0.000474063,0.000461034,0.000446981,0.000431905,0.000415809,0.000398696,0.00038057,0.000361438,0.000341309,0.000320193,0.000298106,0.000275066,0.000251094,0.000226216,0.000200465,0.000173876,0.00014649,0.000118354,8.952e-05,6.00469e-05,2.99986e-05,-5.55033e-07,-3.15381e-05,-6.28689e-05,-9.44601e-05,-0.000126219,-0.000158046,-0.00018984,-0.000221492,-0.000252891,-0.00028392,-0.000314462,-0.000344394,-0.000373593,-0.000401934,-0.000429293,-0.000455545,-0.000480565,-0.000504231,-0.000526423,-0.000547027,-0.000565929,-0.000583023,-0.000598209,-0.000611393,-0.000622489,-0.000631419,-0.000638114,-0.000642515,-0.000644574,-0.000644253,-0.000641526,-0.000636378,-0.000628807,-0.000618824,-0.00060645,-0.000591723,-0.000574691,-0.000555417,-0.000533978,-0.000510461,-0.000484971,-0.000457626,-0.000428557,-0.000397912,-0.000365855,-0.000332567,-0.00029825,-0.000263127,-0.000227447,-0.000191493,-0.000155582,-0.000120081,-8.54158e-05,-5.20879e-05,-2.06968e-05,8.03268e-06,3.32149e-05,5.37638e-05,6.83555e-05,7.54177e-05,7.32047e-05,6.00794e-05,3.52232e-05,-0
-0,-4.0694e-05,-4.95921e-05,-3.46627e-05,-2.3705e-06,4.20858e-05,9.46275e-05,0.000152125,0.000212218,0.000273143,0.000333599,0.000392637,0.000449568,0.000503909,0.000555326,0.000603602,0.000648609,0.000690285,0.00072862,0.00076364,0.0007954,0.000823976,0.000849458,0.000871942,0.000891532,0.000908332,0.000922447,0.000933978,0.000943021,0.000949668,0.000954005,0.000956109,0.000956051,0.000953896,0.000949699,0.000943511,0.000935372,0.00092532,0.000913383,0.000899585,0.000883947,0.000866484,0.000847206,0.000826124,0.000803244,0.000778572,0.000752116,0.00072388,0.000693874,0.000662107,0.000628594,0.000593351,0.000556401,0.000517771,0.000477495,0.000435613,0.000392174,0.000347233,0.000300855,0.000253112,0.000204089,0.000153876,0.000102576,5.03012e-05,-2.82647e-06,-5.66751e-05,-0.000111103,-0.000165958,-0.00022108,-0.000276299,-0.000331437,-0.000386309,-0.000440721,-0.000494476,-0.000547369,-0.000599191,-0.000649732,-0.000698777,-0.000746112,-0.000791524,-0.000834801,-0.000875733,-0.000914117,-0.000949754,-0.000982454,-0.00101203,-0.00103833,-0.00106117,-0.00108041,-0.00109593,-0.0011076,-0.00111532,-0.00111902,-0.00111863,-0.0011141,-0.00110541,-0.00109256,-0.00107557,-0.00105448,-0.00102935,-0.00100027,-0.000967349,-0.000930716,-0.00089053,-0.00084697,-0.000800243,-0.000750579,-0.000698237,-0.000643502,-0.000586693,-0.000528161,-0.000468296,-0.000407533,-0.00034636,-0.000285328,-0.000225063,-0.000166289,-0.000109844,-5.67177e-05,-8.07833e-06,3.46793e-05,6.9893e-05,9.55983e-05,0.000109526,0.000109177,9.20407e-05,5.60214e-05,-0
-0,-4.55833e-05,-4.91207e-05,-2.12356e-05,2.96803e-05,9.69474e-05,0.000175284,0.000260563,0.000349593,0.000439936,0.000529744,0.000617637,0.000702593,0.000783872,0.000860953,0.000933483,0.00100124,0.0010641,0.00112203,0.00117504,0.00122319,0.00126657,0.00130531,0.00133953,0.00136938,0.001395,0.00141654,0.00143414,0.00144795,0.00145809,0.00146469,0.00146786,0.00146771,0.00146433,0.00145781,0.00144821,0.00143561,0.00142005,0.00140158,0.00138025,0.00135607,0.00132908,0.0012993,0.00126673,0.0012314,0.00119332,0.0011525,0.00110895,0.00106269,0.00101374,0.000962113,0.000907851,0.000850988,0.000791568,0.000729647,0.000665289,0.00059857,0.000529579,0.000458416,0.000385195,0.000310046,0.00023311,0.000154545,7.45231e-05,-6.76829e-06,-8.91273e-05,-0.000172337,-0.000256167,-0.000340372,-0.000424695,-0.000508864,-0.000592599,-0.000675607,-0.000757588,-0.000838233,-0.000917227,-0.00099425,-0.00106898,-0.0011411,-0.00121027,-0.00127619,-0.00133854,-0.00139701,-0.00145131,-0.00150114,-0.00154623,-0.00158633,-0.0016212,-0.00165061,-0.00167437,-0.00169231,-0.00170428,-0.00171014,-0.00170981,-0.00170323,-0.00169036,-0.00167119,-0.00164576,-0.00161413,-0.0015764,-0.0015327,-0.0014832,-0.0014281,-0.00136765,-0.00130211,-0.00123181,-0.0011571,-0.00107837,-0.000996071,-0.000910679,-0.000822735,-0.000732837,-0.000641646,-0.000549903,-0.000458438,-0.00036819,-0.00028023,-0.000195789,-0.000116292,-4.33967e-05,2.09566e-05,7.45043e-05,0.000114623,0.000138319,0.000142273,0.000122944,7.67245e-05,-0
-0,-4.34272e-05,-3.58715e-05,1.00553e-05,8.4333e-05,0.000178949,0.000287509,0.000404937,0.000527243,0.000651317,0.000774757,0.00089573,0.00101285,0.00112511,0.00123176,0.00133229,0.00142637,0.0015138,0.00159449,0.00166843,0.00173568,0.00179636,0.0018506,0.00189856,0.00194043,0.00197639,0.00200664,0.00203136,0.00205074,0.00206495,0.00207417,0.00207854,0.0020782,0.00207329,0.00206391,0.00205018,0.00203217,0.00200996,0.00198362,0.0019532,0.00191874,0.00188029,0.00183787,0.0017915,0.00174122,0.00168704,0.00162898,0.00156706,0.00150131,0.00143177,0.00135847,0.00128145,0.00120077,0.00111651,0.00102873,0.000937547,0.000843059,0.000745397,0.000644705,0.000541149,0.000434911,0.000326194,0.000215222,0.000102239,-1.24912e-05,-0.000128683,-0.000246031,-0.00036421,-0.000482877,-0.000601671,-0.000720212,-0.000838107,-0.000954948,-0.00107031,-0.00118377,-0.00129489,-0.00140321,-0.0015083,-0.0016097,-0.00170696,-0.00179964,-0.0018873,-0.00196952,-0.00204588,-0.00211598,-0.00217945,-0.00223593,-0.00228508,-0.00232661,-0.00236023,-0.00238571,-0.00240284,-0.00241145,-0.00241141,-0.00240264,-0.00238508,-0.00235873,-0.00232365,-0.00227992,-0.00222768,-0.00216712,-0.00209847,-0.00202203,-0.00193813,-0.00184716,-0.00174957,-0.00164586,-0.00153659,-0.00142237,-0.00130389,-0.00118192,-0.00105727,-0.000930891,-0.000803802,-0.000677155,-0.00055224,-0.000430516,-0.00031364,-0.000203506,-0.000102287,-1.24862e-05,6.30211e-05,0.000120943,0.000157545,0.000168643,0.000149608,9.53263e-05,-0
-0,-3.31589e-05,-7.92904e-06,6.16786e-05,0.000164358,0.000290965,0.000434116,0.000587876,0.000747508,0.00090926,0.00107019,0.00122801,0.00138099,0.00152779,0.00166746,0.0017993,0.00192285,0.00203783,0.00214408,0.00224157,0.00233035,0.00241052,0.00248226,0.00254575,0.0026012,0.00264886,0.00268895,0.00272171,0.00274737,0.00276615,0.00277826,0.0027839,0.00278325,0.00277647,0.00276371,0.00274509,0.00272075,0.00269076,0.00265523,0.00261422,0.00256779,0.00251599,0.00245888,0.00239647,0.00232882,0.00225594,0.00217788,0.00209467,0.00200634,0.00191294,0.00181453,0.00171118,0.00160296,0.00148998,0.00137234,0.00125017,0.00112364,0.000992912,0.000858183,0.000719677,0.000577641,0.000432348,0.000284098,0.000133218,-1.99387e-05,-0.000174992,-0.000331537,-0.000489139,-0.000647344,-0.000805671,-0.000963618,-0.00112066,-0.00127627,-0.00142988,-0.00158092,-0.00172882,-0.00187299,-0.00201283,-0.00214775,-0.00227717,-0.0024005,-0.00251716,-0.0026266,-0.00272826,-0.00282163,-0.00290621,-0.00298152,-0.00304714,-0.00310267,-0.00314774,-0.00318204,-0.00320529,-0.00321729,-0.00321785,-0.00320686,-0.00318427,-0.00315007,-0.00310434,-0.00304718,-0.00297879,-0.00289942,-0.00280938,-0.00270906,-0.00259891,-0.00247945,-0.00235128,-0.00221506,-0.00207153,-0.00192152,-0.00176594,-0.00160579,-0.00144218,-0.00127633,-0.0011096,-0.000943471,-0.000779633,-0.000619953,-0.000466539,-0.000321775,-0.000188362,-6.93729e-05,3.17029e-05,0.000110905,0.000163754,0.000185204,0.000169564,0.000110355,-0
-0,-1.41461e-05,3.59421e-05,0.000135326,0.000271737,0.000435118,0.000617245,0.000811425,0.00101225,0.00121537,0.00141734,0.00161544,0.00180757,0.00199211,0.00216786,0.00233394,0.00248976,0.00263493,0.00276923,0.00289258,0.00300501,0.00310665,0.00319765,0.00327824,0.00334867,0.00340921,0.00346014,0.00350173,0.00353427,0.00355802,0.00357324,0.00358017,0.00357902,0.00357001,0.0035533,0.00352907,0.00349746,0.00345859,0.00341258,0.00335951,0.00329946,0.00323251,0.0031587,0.0030781,0.00299074,0.00289668,0.00279596,0.00268862,0.00257473,0.00245435,0.00232756,0.00219445,0.00205513,0.00190973,0.00175839,0.0016013,0.00143864,0.00127066,0.0010976,0.000919761,0.000737452,0.00055103,0.000360879,0.000167421,-2.88927e-05,-0.000227575,-0.000428107,-0.000629937,-0.000832482,-0.00103513,-0.00123725,-0.00143817,-0.00163721,-0.00183366,-0.0020268,-0.0022159,-0.00240021,-0.00257898,-0.00275146,-0.00291691,-0.00307458,-0.00322376,-0.00336372,-0.00349379,-0.00361329,-0.00372161,-0.00381816,-0.00390237,-0.00397375,-0.00403185,-0.00407626,-0.00410665,-0.00412273,-0.00412429,-0.0041112,-0.00408338,-0.00404082,-0.00398363,-0.00391194,-0.00382601,-0.00372615,-0.00361277,-0.00348635,-0.00334749,-0.00319684,-0.00303515,-0.00286329,-0.0026822,-0.00249292,-0.00229663,-0.00209458,-0.00188819,-0.001679,-0.00146869,-0.00125916,-0.00105248,-0.000850946,-0.000657144,-0.000473954,-0.000304613,-0.00015276,-2.24963e-05,8.15592e-05,0.000154202,0.000189557,0.000180961,0.000120762,-0
-0,1.3953e-05,9.64864e-05,0.000232092,0.000407823,0.000612916,0.000838459,0.00107712,0.00132289,0.00157091,0.00181725,0.0020588,0.0022931,0.00251826,0.00273285,0.00293579,0.00312636,0.00330406,0.0034686,0.00361986,0.00375784,0.00388265,0.00399447,0.00409355,0.00418016,0.00425462,0.00431724,0.00436834,0.00440826,0.0044373,0.00445576,0.00446394,0.00446208,0.00445043,0.00442921,0.00439862,0.00435882,0.00430998,0.00425222,0.00418566,0.0041104,0.00402653,0.00393411,0.00383322,0.00372392,0.00360626,0.00348033,0.00334617,0.00320386,0.00305351,0.0028952,0.00272905,0.00255522,0.00237386,0.00218517,0.00198936,0.0017867,0.00157748,0.001362,0.00114065,0.000913806,0.000681922,0.000445476,0.000204988,-3.89781e-05,-0.000285819,-0.000534891,-0.000785512,-0.00103696,-0.00128849,-0.0015393,-0.00178859,-0.0020355,-0.00227917,-0.0025187,-0.0027532,-0.00298176,-0.00320344,-0.00341733,-0.00362251,-0.00381808,-0.00400314,-0.00417682,-0.00433829,-0.00448672,-0.00462135,-0.00474145,-0.00484636,-0.00493545,-0.00500816,-0.00506401,-0.00510258,-0.00512354,-0.00512661,-0.00511164,-0.00507852,-0.00502728,-0.004958,-0.0048709,-0.00476625,-0.00464447,-0.00450606,-0.00435162,-0.00418186,-0.00399762,-0.00379982,-0.00358952,-0.00336789,-0.00313622,-0.00289594,-0.00264862,-0.00239597,-0.00213987,-0.0018824,-0.00162581,-0.00137262,-0.00112556,-0.000887705,-0.00066243,-0.000453508,-0.000265144,-0.000102035,3.05613e-05,0.000126747,0.000179884,0.000182448,0.000125822,-0
-0,5.12867e-05,0.0001741,0.000352629,0.000573479,0.000825368,0.00109885,0.00138606,0.00168049,0.00197682,0.00227072,0.00255869,0.00283797,0.00310639,0.00336231,0.00360449,0.00383203,0.00404435,0.00424108,0.00442204,0.00458723,0.00473672,0.00487073,0.0049895,0.00509334,0.0051826,0.00525764,0.00531882,0.00536651,0.00540107,0.00542285,0.00543217,0.00542934,0.00541464,0.00538831,0.00535061,0.00530171,0.00524182,0.00517108,0.00508964,0.00499762,0.00489512,0.00478223,0.00465904,0.00452563,0.00438208,0.00422847,0.00406489,0.00389144,0.00370823,0.0035154,0.00331309,0.00310148,0.00288079,0.00265124,0.00241313,0.00216676,0.00191248,0.00165069,0.00138184,0.0011064,0.000824928,0.000537994,0.000246235,-4.96674e-05,-0.000348983,-0.000650936,-0.0009547,-0.00125941,-0.00156416,-0.00186799,-0.00216992,-0.00246895,-0.00276402,-0.00305406,-0.003338,-0.00361473,-0.00388315,-0.00414216,-0.00439065,-0.00462754,-0.00485176,-0.00506226,-0.00525804,-0.00543812,-0.00560158,-0.00574756,-0.00587525,-0.0059839,-0.00607285,-0.00614152,-0.00618941,-0.0062161,-0.0062213,-0.00620479,-0.00616647,-0.00610636,-0.00602456,-0.00592133,-0.00579702,-0.00565211,-0.00548721,-0.00530306,-0.0051005,-0.00488054,-0.0046443,-0.00439305,-0.0041282,-0.00385129,-0.00356405,-0.00326834,-0.00296622,-0.00265993,-0.00235192,-0.00204485,-0.00174167,-0.00144559,-0.00116013,-0.000889195,-0.000637082,-0.000408549,-0.000208873,-4.39226e-05,7.97599e-05,0.000154844,0.00017307,0.000125046,-0
-0,9.78756e-05,0.000268933,0.000497257,0.000769188,0.00107309,0.00139911,0.00173897,0.00208576,0.00243376,0.00277828,0.00311552,0.00344242,0.00375657,0.00405613,0.00433968,0.00460621,0.00485502,0.00508567,0.00529795,0.0054918,0.00566731,0.00582469,0.00596419,0.00608617,0.00619098,0.00627904,0.00635075,0.00640652,0.00644676,0.00647186,0.00648218,0.00647808,0.00645986,0.00642783,0.00638225,0.00632336,0.00625136,0.00616644,0.00606876,0.00595847,0.00583569,0.00570053,0.00555311,0.00539352,0.00522185,0.00503822,0.00484273,0.00463552,0.00441671,0.00418647,0.00394499,0.0036925,0.00342924,0.00315551,0.00287165,0.00257801,0.00227505,0.00196322,0.00164307,0.00131517,0.000980156,0.000638734,0.000291651,-6.02831e-05,-0.000416202,-0.000775185,-0.00113626,-0.00149839,-0.00186052,-0.00222152,-0.00258022,-0.00293543,-0.00328593,-0.00363044,-0.00396771,-0.00429642,-0.00461528,-0.004923,-0.00521827,-0.00549982,-0.00576639,-0.00601675,-0.00624972,-0.00646415,-0.00665895,-0.00683312,-0.00698569,-0.00711579,-0.00722265,-0.00730558,-0.00736398,-0.00739738,-0.00740542,-0.00738785,-0.00734455,-0.00727554,-0.00718095,-0.00706107,-0.00691633,-0.00674729,-0.00655467,-0.00633933,-0.00610229,-0.00584473,-0.00556796,-0.00527349,-0.00496296,-0.00463822,-0.00430127,-0.0039543,-0.00359972,-0.00324014,-0.0028784,-0.00251759,-0.00216108,-0.00181256,-0.00147604,-0.00115591,-0.000857002,-0.000584605,-0.000344557,-0.000143301,1.20244e-05,0.000113478,0.000152177,0.000118124,-0
-0,0.000153657,0.00038097,0.000666059,0.000995148,0.00135638,0.00173962,0.00213629,0.00253914,0.00294214,0.0033403,0.00372955,0.00410659,0.00446879,0.00481413,0.00514104,0.00544838,0.00573538,0.00600152,0.00624653,0.00647034,0.00667304,0.00685481,0.00701595,0.00715682,0.00727783,0.00737941,0.00746201,0.00752609,0.00757209,0.00760045,0.00761158,0.00760586,0.00758367,0.00754531,0.0074911,0.0074213,0.00733616,0.00723587,0.00712064,0.00699063,0.00684598,0.00668683,0.00651331,0.00632554,0.00612363,0.00590772,0.00567795,0.00543445,0.00517741,0.00490703,0.00462352,0.00432716,0.00401826,0.00369715,0.00336423,0.00301996,0.00266483,0.00229941,0.00192432,0.00154024,0.00114792,0.000748177,0.000341888,-7.00011e-05,-0.000486481,-0.00090648,-0.00132886,-0.00175243,-0.00217594,-0.0025981,-0.00301754,-0.00343288,-0.0038427,-0.00424552,-0.00463988,-0.00502428,-0.0053972,-0.00575713,-0.00610259,-0.00643208,-0.00674414,-0.00703737,-0.00731037,-0.00756184,-0.0077905,-0.00799518,-0.00817477,-0.00832827,-0.00845477,-0.00855346,-0.00862368,-0.00866485,-0.00867657,-0.00865853,-0.00861062,-0.00853283,-0.00842533,-0.00828846,-0.0081227,-0.00792871,-0.00770732,-0.00745953,-0.00718653,-0.00688966,-0.00657049,-0.00623072,-0.00587228,-0.00549729,-0.00510807,-0.00470715,-0.00429728,-0.00388146,-0.00346293,-0.00304522,-0.00263215,-0.00222785,-0.00183683,-0.00146398,-0.00111464,-0.000794615,-0.000510288,-0.000268636,-7.73402e-05,5.51209e-05,0.000119348,0.000104874,-0
-0,0.000218512,0.000510074,0.000858945,0.00125134,0.0016753,0.00212052,0.00257818,0.00304081,0.00350214,0.00395693,0.00440088,0.00483049,0.00524296,0.0056361,0.00600822,0.00635808,0.0066848,0.00698783,0.00726686,0.00752179,0.00775268,0.00795975,0.0081433,0.00830372,0.00844145,0.00855695,0.00865072,0.00872325,0.00877503,0.00880655,0.00881825,0.00881056,0.00878388,0.00873858,0.00867498,0.00859339,0.00849408,0.00837729,0.00824323,0.00809209,0.00792404,0.00773924,0.00753783,0.00731997,0.00708579,0.00683544,0.00656909,0.00628692,0.00598914,0.00567597,0.0053477,0.00500464,0.00464713,0.00427559,0.00389049,0.00349234,0.00308172,0.0026593,0.00222579,0.00178197,0.00132873,0.000866988,0.000397765,-7.7852e-05,-0.000558702,-0.00104355,-0.0015311,-0.00201998,-0.00250875,-0.00299592,-0.00347995,-0.00395925,-0.00443217,-0.00489706,-0.0053522,-0.0057959,-0.00622641,-0.00664203,-0.00704102,-0.0074217,-0.00778239,-0.00812148,-0.00843738,-0.00872858,-0.00899364,-0.0092312,-0.00944001,-0.0096189,-0.00976684,-0.00988291,-0.00996633,-0.0100165,-0.0100328,-0.010015,-0.009963,-0.0098767,-0.00975634,-0.00960228,-0.00941507,-0.00919548,-0.00894445,-0.00866312,-0.00835285,-0.00801518,-0.00765187,-0.00726491,-0.00685648,-0.00642899,-0.00598508,-0.00552763,-0.00505977,-0.00458487,-0.0041066,-0.00362891,-0.00315606,-0.00269267,-0.00224371,-0.00181458,-0.00141111,-0.00103962,-0.000706996,-0.000420716,-0.000188955,-2.06628e-05,7.43334e-05,8.52036e-05,-0
-0,0.000292292,0.000656037,0.00107571,0.0015376,0.00202974,0.00254174,0.00306463,0.0035908,0.00411377,0.00462815,0.00512945,0.00561402,0.0060789,0.00652177,0.00694085,0.0073348,0.00770269,0.0080439,0.00835809,0.00864516,0.00890516,0.00913831,0.00934494,0.00952546,0.00968033,0.00981007,0.00991521,0.00999628,0.0100538,0.0100883,0.0101003,0.0100903,0.0100586,0.0100057,0.009932,0.00983775,0.00972329,0.00958887,0.00943475,0.00926112,0.0090682,0.00885615,0.00862515,0.00837536,0.00810695,0.0078201,0.00751501,0.00719187,0.00685095,0.0064925,0.00611685,0.00572436,0.00531543,0.00489056,0.00445025,0.00399512,0.00352584,0.00304315,0.00254788,0.00204093,0.00152328,0.000996003,0.000460258,-8.27226e-05,-0.000631619,-0.00118503,-0.00174148,-0.00229941,-0.0028572,-0.00341316,-0.00396553,-0.00451252,-0.00505226,-0.00558288,-0.00610243,-0.006609,-0.00710061,-0.00757533,-0.0080312,-0.00846631,-0.00887876,-0.00926671,-0.00962838,-0.00996206,-0.0102661,-0.010539,-0.0107793,-0.0109856,-0.0111569,-0.0112921,-0.0113902,-0.0114506,-0.0114726,-0.011456,-0.0114005,-0.0113061,-0.011173,-0.0110017,-0.0107928,-0.0105471,-0.0102657,-0.00994993,-0.00960123,-0.00922139,-0.0088124,-0.00837648,-0.0079161,-0.00743398,-0.00693309,-0.00641664,-0.00588816,-0.00535141,-0.00481047,-0.00426974,-0.00373393,-0.00320812,-0.00269776,-0.00220874,-0.00174737,-0.00132047,-0.000935401,-0.00060012,-0.000323247,-0.000114144,1.70031e-05,5.9087e-05,-0
-0,0.000374826,0.000818598,0.00131605,0.00185364,0.00241944,0.00300305,0.00359545,0.00418893,0.00477689,0.00535382,0.0059151,0.00645696,0.00697634,0.00747082,0.00793853,0.00837807,0.00878845,0.00916903,0.00951945,0.00983957,0.0101295,0.0103894,0.0106197,0.0108208,0.0109932,0.0111374,0.011254,0.0113437,0.0114069,0.0114442,0.0114562,0.0114434,0.0114062,0.0113451,0.0112605,0.0111527,0.0110222,0.0108691,0.0106937,0.0104963,0.0102771,0.0100362,0.009774,0.00949054,0.00918605,0.00886074,0.00851482,0.00814854,0.00776218,0.00735606,0.00693053,0.00648602,0.00602299,0.00554199,0.00504361,0.00452854,0.00399754,0.00345146,0.00289122,0.00231784,0.00173245,0.00113623,0.000530502,-8.33573e-05,-0.000703859,-0.00132943,-0.00195841,-0.00258905,-0.00321953,-0.00384795,-0.00447234,-0.00509068,-0.00570089,-0.00630086,-0.00688842,-0.00746139,-0.00801759,-0.00855483,-0.00907091,-0.0095637,-0.0100311,-0.0104709,-0.0108813,-0.0112603,-0.011606,-0.0119167,-0.0121908,-0.0124268,-0.0126234,-0.0127795,-0.0128939,-0.0129659,-0.0129949,-0.0129804,-0.0129222,-0.0128203,-0.0126749,-0.0124864,-0.0122557,-0.0119836,-0.0116712,-0.0113201,-0.010932,-0.0105087,-0.0100526,-0.00956609,-0.00905191,-0.00851312,-0.00795301,-0.00737517,-0.00678349,-0.00618215,-0.00557565,-0.00496882,-0.00436683,-0.00377523,-0.00319995,-0.00264734,-0.00212421,-0.00163784,-0.00119606,-0.000807273,-0.0004805,-0.000225475,-5.26878e-05,2.65391e-05,-0
-0,0.000465933,0.000997464,0.00157963,0.00219909,0.00284404,0.00350412,0.00417034,0.00483492,0.00549123,0.00613367,0.00675755,0.00735903,0.00793496,0.00848286,0.00900081,0.00948737,0.00994151,0.0103626,0.0107502,0.0111042,0.0114248,0.0117121,0.0119665,0.0121886,0.0123787,0.0125376,0.0126659,0.012764,0.0128328,0.0128727,0.0128844,0.0128684,0.0128252,0.0127553,0.0126591,0.012537,0.0123894,0.0122165,0.0120188,0.0117963,0.0115495,0.0112784,0.0109834,0.0106646,0.0103223,0.00995661,0.00956789,0.00915639,0.00872242,0.00826634,0.00778857,0.00728957,0.00676987,0.00623007,0.00567087,0.00509303,0.00449739,0.00388491,0.00325662,0.00261367,0.0019573,0.00128886,0.000609785,-7.83585e-05,-0.000773922,-0.00147515,-0.0021802,-0.00288712,-0.00359388,-0.00429836,-0.0049984,-0.00569171,-0.00637601,-0.00704892,-0.00770804,-0.00835096,-0.00897523,-0.00957842,-0.0101581,-0.0107118,-0.0112373,-0.0117322,-0.0121943,-0.0126214,-0.0130115,-0.0133626,-0.013673,-0.013941,-0.0141651,-0.0143439,-0.0144764,-0.0145617,-0.0145989,-0.0145877,-0.0145277,-0.0144189,-0.0142616,-0.0140563,-0.0138038,-0.013505,-0.0131613,-0.0127742,-0.0123457,-0.0118779,-0.0113733,-0.0108346,-0.0102649,-0.00966744,-0.00904594,-0.00840434,-0.00774691,-0.00707824,-0.00640326,-0.00572725,-0.00505583,-0.00439501,-0.0037512,-0.00313122,-0.00254235,-0.00199233,-0.00148944,-0.00104249,-0.000660904,-0.000354732,-0.000134731,-1.23991e-05,-0
-0,0.000565428,0.00119233,0.00186607,0.00257354,0.00330312,0.00404455,0.00478888,0.00552838,0.00625641,0.00696733,0.00765643,0.00831983,0.00895434,0.00955746,0.0101272,0.0106622,0.0111613,0.0116239,0.0120496,0.0124383,0.0127902,0.0131054,0.0133845,0.0136278,0.013836,0.0140097,0.0141496,0.0142563,0.0143304,0.0143727,0.0143838,0.0143642,0.0143144,0.0142351,0.0141266,0.0139893,0.0138238,0.0136302,0.0134089,0.0131603,0.0128845,0.0125819,0.0122526,0.0118969,0.011515,0.0111072,0.0106738,0.0102151,0.00973149,0.0092233,0.00869101,0.00813516,0.00755634,0.00695523,0.00633257,0.00568923,0.00502616,0.00434439,0.00364509,0.00292953,0.00219907,0.00145521,0.000699553,-6.61867e-05,-0.000840179,-0.00162049,-0.00240506,-0.00319176,-0.00397833,-0.00476245,-0.0055417,-0.00631358,-0.00707554,-0.00782498,-0.00855925,-0.00927565,-0.0099715,-0.0106441,-0.0112908,-0.0119088,-0.0124957,-0.0130488,-0.0135656,-0.0140439,-0.0144812,-0.0148755,-0.0152247,-0.015527,-0.0157808,-0.0159846,-0.0161371,-0.0162372,-0.0162842,-0.0162775,-0.0162168,-0.016102,-0.0159335,-0.0157117,-0.0154375,-0.0151119,-0.0147365,-0.0143129,-0.0138433,-0.0133299,-0.0127756,-0.0121832,-0.0115562,-0.0108982,-0.0102131,-0.00950541,-0.00877968,-0.00804093,-0.00729453,-0.00654619,-0.00580201,-0.00506845,-0.0043524,-0.00366115,-0.00300243,-0.00238446,-0.00181592,-0.00130604,-0.000864592,-0.000501944,-0.00022909,-5.76739e-05,-0
-0,0.000673129,0.00140288,0.00217496,0.00297654,0.00379619,0.00462383,0.00545061,0.00626885,0.00707197,0.00785435,0.0086113,0.00933892,0.010034,0.0106941,0.0113173,0.011902,0.0124472,0.0129524,0.0134171,0.0138412,0.014225,0.0145686,0.0148727,0.0151376,0.015364,0.0155526,0.0157042,0.0158193,0.0158987,0.0159431,0.0159532,0.0159295,0.0158728,0.0157834,0.0156619,0.0155087,0.0153244,0.0151091,0.0148634,0.0145874,0.0142815,0.0139459,0.013581,0.0131868,0.0127639,0.0123123,0.0118325,0.0113247,0.0107894,0.0102271,0.00963813,0.0090232,0.00838293,0.00771807,0.00702945,0.00631802,0.00558482,0.004831,0.00405783,0.00326672,0.00245916,0.0016368,0.000801398,-4.51612e-05,-0.000900869,-0.0017636,-0.0026311,-0.00350102,-0.0043709,-0.00523817,-0.00610019,-0.00695421,-0.00779743,-0.00862699,-0.00943997,-0.0102334,-0.0110044,-0.01175,-0.0124671,-0.0131529,-0.0138045,-0.014419,-0.0149938,-0.0155263,-0.0160138,-0.016454,-0.0168448,-0.0171841,-0.01747,-0.0177009,-0.0178753,-0.0179922,-0.0180506,-0.0180499,-0.0179897,-0.01787,-0.0176909,-0.0174531,-0.0171575,-0.0168052,-0.0163979,-0.0159374,-0.0154259,-0.014866,-0.0142607,-0.0136132,-0.0129272,-0.0122067,-0.011456,-0.0106798,-0.00988319,-0.00907156,-0.00825073,-0.00742685,-0.00660649,-0.00579658,-0.00500446,-0.00423791,-0.00350512,-0.00281473,-0.00217587,-0.00159814,-0.00109167,-0.000667125,-0.000335716,-0.000109229,-0
-0,0.000788855,0.0016288,0.00250589,0.00340761,0.00432277,0.00524146,0.00615499,0.00705581,0.0079374,0.00879424,0.00962165,0.0104158,0.0111735,0.0118924,0.0125704,0.0132062,0.0137987,0.0143474,0.0148519,0.0153121,0.0157284,0.0161009,0.0164303,0.0167171,0.0169619,0.0171655,0.0173287,0.0174522,0.0175367,0.017583,0.0175917,0.0175636,0.0174993,0.0173993,0.0172642,0.0170945,0.0168905,0.0166527,0.0163814,0.0160771,0.0157399,0.0153702,0.0149682,0.0145343,0.0140687,0.0135718,0.0130438,0.0124853,0.0118965,0.011278,0.0106304,0.00995427,0.00925033,0.00851942,0.00776244,0.00698043,0.00617453,0.00534599,0.00449621,0.00362671,0.00273914,0.00183528,0.000917065,-1.34604e-05,-0.000954101,-0.00190254,-0.00285631,-0.00381287,-0.0047695,-0.00572343,-0.00667175,-0.00761148,-0.00853955,-0.00945284,-0.0103482,-0.0112223,-0.012072,-0.0128941,-0.0136852,-0.0144423,-0.015162,-0.0158414,-0.0164775,-0.0170673,-0.0176082,-0.0180974,-0.0185326,-0.0189115,-0.019232,-0.0194924,-0.0196911,-0.0198267,-0.0198984,-0.0199052,-0.0198469,-0.0197233,-0.0195346,-0.0192815,-0.0189649,-0.018586,-0.0181467,-0.0176488,-0.0170948,-0.0164875,-0.0158302,-0.0151262,-0.0143796,-0.0135947,-0.0127761,-0.0119291,-0.011059,-0.0101716,-0.00927325,-0.00837054,-0.00747047,-0.00658046,-0.00570833,-0.00486231,-0.00405105,-0.00328365,-0.00256964,-0.00191902,-0.00134225,-0.00085029,-0.000454569,-0.000167012,-0
-0,0.000912432,0.00186977,0.00285846,0.00386627,0.00488231,0.00589687,0.00690146,0.00788868,0.00885214,0.00978641,0.0106869,0.0115499,0.0123723,0.0131516,0.013886,0.0145742,0.0152151,0.0158083,0.0163534,0.0168505,0.0172997,0.0177016,0.0180567,0.0183655,0.0186289,0.0188476,0.0190224,0.0191541,0.0192435,0.0192914,0.0192986,0.0192657,0.0191934,0.0190822,0.0189329,0.0187458,0.0185215,0.0182603,0.0179627,0.0176289,0.0172594,0.0168544,0.0164142,0.0159392,0.0154296,0.0148858,0.0143082,0.0136972,0.0130532,0.0123767,0.0116685,0.0109292,0.0101594,0.00936029,0.00853267,0.00767771,0.00679663,0.00589082,0.00496178,0.00401116,0.00304075,0.00205248,0.00104845,3.08785e-05,-0.000997852,-0.00203522,-0.00307858,-0.00412513,-0.00517196,-0.00621603,-0.00725419,-0.00828321,-0.00929976,-0.0103004,-0.0112818,-0.0122403,-0.0131724,-0.0140746,-0.0149434,-0.0157753,-0.0165668,-0.0173146,-0.0180154,-0.0186659,-0.0192633,-0.0198047,-0.0202873,-0.0207087,-0.0210666,-0.021359,-0.0215843,-0.0217409,-0.0218277,-0.0218439,-0.0217889,-0.0216627,-0.0214655,-0.0211979,-0.0208608,-0.0204557,-0.0199843,-0.0194488,-0.0188518,-0.0181963,-0.0174858,-0.0167239,-0.0159151,-0.0150639,-0.0141753,-0.013255,-0.0123087,-0.0113426,-0.0103636,-0.00937864,-0.00839523,-0.00742125,-0.00646501,-0.0055352,-0.00464094,-0.00379177,-0.00299764,-0.00226894,-0.00161647,-0.00105148,-0.000585625,-0.000230985,-0