-0,-0.000810337,-0.00289325,-0.00533084,-0.00743249,-0.00876789,-0.00908925,-0.00826527,-0.00623812,-0.00299669,0.00143989,0.00703289,0.0137309,0.0214744,0.0301993,0.0398389,0.0503256,0.0615921,0.0735721,0.0862011,0.0994165,0.113158,0.127368,0.141991,0.156975,0.172268,0.187824,0.203596,0.219541,0.235616,0.251784,0.268004,0.284242,0.30046,0.316625,0.332705,0.348665,0.364475,0.380103,0.395518,0.410691,0.42559,0.440185,0.454447,0.468344,0.481848,0.494928,0.507554,0.519695,0.531321,0.542402,0.552909,0.56281,0.572077,0.58068,0.588591,0.59578,0.602222,0.607889,0.612756,0.616798,0.619994,0.622322,0.623762,0.624297,0.623913,0.622595,0.620335,0.617123,0.612956,0.607832,0.601752,0.594721,0.586748,0.577845,0.568027,0.557314,0.54573,0.533301,0.520059,0.506039,0.49128,0.475824,0.459718,0.443011,0.425758,0.408015,0.389841,0.3713,0.352455,0.333376,0.31413,0.294791,0.275429,0.256119,0.236936,0.217954,0.199247,0.180891,0.162957,0.14552,0.128648,0.11241,0.0968732,0.0820999,0.0681503,0.0550808,0.0429435,0.0317862,0.0216518,0.0125774,0.00459423,-0.00227335,-0.00800858,-0.0126034,-0.0160595,-0.0183906,-0.0196241,-0.0198046,-0.0189982,-0.0172988,-0.0148368,-0.0117928,-0.00841646,-0.00505243,-0.00216684,-0.000333333,-0
-0.000810337,-0.00127343,-0.00173625,-0.00222883,-0.00248329,-0.00222791,-0.00125707,0.000566035,0.0033227,0.00705276,0.0117661,0.0174509,0.0240805,0.0316172,0.0400165,0.0492285,0.0592009,0.0698795,0.0812095,0.0931365,0.105607,0.118567,0.131967,0.145757,0.159888,0.174315,0.188993,0.203879,0.218933,0.234114,0.249386,0.26471,0.280052,0.295378,0.310654,0.325847,0.340927,0.355862,0.370621,0.385174,0.399493,0.413547,0.427306,0.440743,0.453828,0.466533,0.478828,0.490685,0.502075,0.51297,0.523342,0.533163,0.542405,0.551041,0.559043,0.566387,0.573045,0.578994,0.58421,0.58867,0.592353,0.595238,0.597307,0.598544,0.598934,0.598463,0.597122,0.594902,0.591797,0.587804,0.582923,0.577157,0.570512,0.562995,0.554621,0.545403,0.535361,0.524518,0.512899,0.500533,0.487453,0.473695,0.459299,0.444308,0.428767,0.412725,0.396234,0.379349,0.362126,0.344625,0.326906,0.309033,0.291071,0.273084,0.255139,0.237304,0.219646,0.202231,0.185127,0.168399,0.152112,0.136329,0.121112,0.106518,0.0926047,0.0794243,0.0670264,0.0554566,0.0447559,0.0349607,0.0261016,0.0182036,0.0112844,0.0053546,0.000415808,-0.00354012,-0.00653285,-0.00859555,-0.0097775,-0.0101474,-0.00979739,-0.00884841,-0.00745517,-0.00580995,-0.00413751,-0.00266247,-0.00149808,-0.000333333
-0.0028952,-0.00173795,-0.000551451,0.000632072,0.00195195,0.00359152,0.005717,0.00845758,0.011904,0.0161134,0.0211161,0.0269212,0.0335219,0.0408991,0.0490252,0.0578656,0.0673816,0.0775312,0.0882703,0.099554,0.111337,0.123573,0.136219,0.149229,0.16256,0.176171,0.190021,0.20407,0.218279,0.232611,0.247031,0.261502,0.275992,0.290466,0.304893,0.319241,0.333479,0.347578,0.361507,0.375237,0.38874,0.401986,0.414948,0.427598,0.439908,0.45185,0.463397,0.474523,0.485199,0.4954,0.505098,0.514269,0.522887,0.530925,0.538361,0.54517,0.551328,0.556815,0.561608,0.565687,0.569034,0.571632,0.573463,0.574515,0.574774,0.574229,0.572873,0.570699,0.567704,0.563884,0.559242,0.553782,0.547508,0.540432,0.532565,0.523923,0.514523,0.504387,0.493539,0.482007,0.469822,0.457016,0.443626,0.429691,0.415254,0.400358,0.385052,0.369385,0.353407,0.337173,0.320738,0.304159,0.287494,0.270801,0.254141,0.237573,0.221158,0.204956,0.189026,0.173428,0.158218,0.143454,0.129188,0.115474,0.10236,0.0898928,0.0781157,0.0670678,0.0567842,0.0472949,0.0386251,0.0307935,0.0238127,0.0176876,0.0124148,0.00798116,0.00436292,0.00152366,-0.000587371,-0.00203741,-0.00291222,-0.00331771,-0.00337948,-0.00323757,-0.00302962,-0.00284997,-0.00266429,-0.0021628
-0.00534266,-0.00223367,0.000634424,0.00335476,0.0060657,0.00892342,0.0120747,0.0156427,0.0197224,0.0243823,0.0296667,0.0356008,0.0421937,0.0494417,0.0573315,0.0658422,0.074947,0.0846148,0.0948117,0.105501,0.116646,0.128207,0.140146,0.152425,0.165003,0.177845,0.190911,0.204166,0.217573,0.231098,0.244707,0.258365,0.272041,0.285703,0.299319,0.312859,0.326293,0.339593,0.352728,0.365671,0.378394,0.390869,0.40307,0.414968,0.426539,0.437754,0.44859,0.459019,0.469016,0.478557,0.487617,0.496173,0.504199,0.511674,0.518575,0.52488,0.530569,0.535622,0.54002,0.543745,0.546781,0.549113,0.550727,0.551611,0.551755,0.55115,0.54979,0.54767,0.544787,0.541142,0.536736,0.531574,0.525663,0.519013,0.511636,0.503547,0.494763,0.485304,0.475194,0.464458,0.453125,0.441225,0.428791,0.41586,0.40247,0.388662,0.374478,0.359962,0.345163,0.330126,0.314903,0.299545,0.284102,0.268628,0.253177,0.237801,0.222555,0.207492,0.192665,0.178126,0.163925,0.150113,0.136737,0.123843,0.111473,0.0996687,0.0884666,0.0779001,0.0679986,0.0587868,0.0502844,0.0425053,0.0354571,0.0291401,0.0235469,0.0186608,0.0144552,0.0108924,0.00792194,0.00548014,0.00348907,0.0018573,0.000482893,-0.000738801,-0.00189918,-0.00304768,-0.00414886,-0.00503991
-0.00746673,-0.00249142,0.00196622,0.00608614,0.0100331,0.0139634,0.0180187,0.0223205,0.0269671,0.0320345,0.0375777,0.0436339,0.0502247,0.0573592,0.0650363,0.0732465,0.0819736,0.0911966,0.10089,0.111026,0.121574,0.132502,0.143777,0.155365,0.167232,0.179344,0.191667,0.204168,0.216813,0.229569,0.242404,0.255286,0.268185,0.28107,0.293911,0.306679,0.319344,0.331878,0.344255,0.356445,0.368423,0.380161,0.391634,0.402815,0.41368,0.424204,0.434361,0.444128,0.45348,0.462395,0.47085,0.478822,0.48629,0.493233,0.49963,0.505462,0.510711,0.515359,0.519389,0.522785,0.525535,0.527624,0.529041,0.529776,0.529821,0.529169,0.527815,0.525757,0.522993,0.519524,0.515353,0.510486,0.504929,0.498694,0.491791,0.484236,0.476045,0.467238,0.457835,0.447861,0.437341,0.426305,0.414783,0.402807,0.390413,0.377636,0.364517,0.351093,0.337409,0.323506,0.309428,0.295222,0.280934,0.26661,0.252298,0.238045,0.223899,0.209906,0.196114,0.182569,0.169314,0.156394,0.14385,0.131722,0.120047,0.108859,0.0981907,0.0880694,0.0785196,0.0695609,0.0612084,0.0534714,0.0463535,0.0398511,0.0339537,0.0286419,0.0238875,0.0196525,0.0158878,0.0125336,0.00951922,0.0067645,0.00418344,0.00169069,-0.00078757,-0.00329856,-0.00584808,-0.00840022
-0.00883707,-0.00223558,0.00363395,0.00899087,0.0140198,0.0188832,0.0237234,0.0286627,0.0338027,0.039225,0.0449924,0.0511513,0.0577334,0.0647581,0.0722342,0.0801622,0.0885351,0.0973405,0.106561,0.116176,0.126161,0.13649,0.147137,0.15807,0.169262,0.180681,0.192297,0.204079,0.215996,0.228018,0.240114,0.252255,0.264411,0.276553,0.288651,0.300679,0.312608,0.324411,0.336061,0.347531,0.358796,0.369829,0.380607,0.391104,0.401296,0.41116,0.420671,0.429808,0.438548,0.446869,0.45475,0.462171,0.469112,0.475553,0.481477,0.486866,0.491703,0.495973,0.499661,0.502754,0.505241,0.507109,0.508349,0.508954,0.508916,0.508231,0.506896,0.504908,0.502269,0.49898,0.495044,0.490469,0.485261,0.47943,0.47299,0.465952,0.458334,0.450154,0.441431,0.432188,0.422449,0.412239,0.401587,0.390522,0.379076,0.367281,0.355173,0.342786,0.330159,0.31733,0.304337,0.291222,0.278024,0.264786,0.251549,0.238354,0.225244,0.21226,0.199442,0.18683,0.174464,0.16238,0.150616,0.139204,0.128178,0.117565,0.107394,0.0976857,0.0884609,0.0797348,0.071518,0.063816,0.0566287,0.0499498,0.0437658,0.0380558,0.0327905,0.0279321,0.0234333,0.0192378,0.0152806,0.0114893,0.0077872,0.00409739,0.000348681,-0.00351871,-0.0075518,-0.0117965
-0.00919989,-0.00125291,0.00581261,0.0122251,0.0181769,0.0238339,0.0293398,0.0348181,0.040373,0.0460902,0.0520385,0.0582711,0.0648277,0.0717359,0.0790131,0.0866676,0.0947008,0.103107,0.111877,0.120996,0.130445,0.140205,0.150253,0.160563,0.17111,0.181868,0.192808,0.203903,0.215124,0.226443,0.237832,0.249263,0.260707,0.272136,0.283524,0.294843,0.306067,0.317168,0.328122,0.338903,0.349486,0.359846,0.369959,0.379803,0.389353,0.398587,0.407484,0.416022,0.42418,0.431938,0.439276,0.446176,0.452619,0.458589,0.464068,0.469042,0.473495,0.477414,0.480786,0.483601,0.485847,0.487516,0.4886,0.489092,0.488989,0.488285,0.48698,0.485073,0.482566,0.47946,0.475762,0.471477,0.466613,0.46118,0.45519,0.448656,0.441594,0.43402,0.425953,0.417413,0.408423,0.399006,0.389187,0.378993,0.368452,0.357593,0.346448,0.335048,0.323426,0.311615,0.299651,0.287569,0.275404,0.263193,0.250972,0.238777,0.226644,0.21461,0.202709,0.190977,0.179446,0.168149,0.157116,0.146377,0.135957,0.125883,0.116175,0.106852,0.0979298,0.0894189,0.0813266,0.0736551,0.0664012,0.059556,0.053104,0.0470232,0.0412836,0.035848,0.0306706,0.0256982,0.0208697,0.0161179,0.0113709,0.00655444,0.00159427,-0.00358313,-0.00905422,-0.0149104
-0.00841162,0.000605308,0.0086429,0.0159229,0.0226358,0.0289465,0.0349985,0.0409155,0.0468031,0.0527499,0.0588289,0.0650987,0.071605,0.0783819,0.0854537,0.0928356,0.100536,0.108555,0.116889,0.12553,0.134466,0.143679,0.153152,0.162865,0.172794,0.182918,0.19321,0.203646,0.2142,0.224845,0.235555,0.246304,0.257064,0.26781,0.278516,0.289155,0.299701,0.310131,0.320418,0.330538,0.340468,0.350183,0.359662,0.368881,0.377819,0.386454,0.394765,0.402734,0.410339,0.417563,0.424388,0.430796,0.436771,0.442297,0.44736,0.451945,0.456041,0.459635,0.462717,0.465276,0.467305,0.468796,0.469743,0.470142,0.469988,0.469281,0.468019,0.466202,0.463834,0.460918,0.457459,0.453464,0.448941,0.4439,0.438352,0.43231,0.425788,0.418803,0.41137,0.40351,0.395241,0.386585,0.377566,0.368206,0.358531,0.348567,0.338341,0.327881,0.317216,0.306375,0.295389,0.284287,0.273102,0.261864,0.250605,0.239356,0.228147,0.217011,0.205976,0.195073,0.184329,0.173772,0.163428,0.153321,0.143472,0.133902,0.124629,0.115667,0.107027,0.098717,0.0907407,0.0830973,0.0757811,0.0687811,0.0620803,0.0556555,0.0494768,0.0435074,0.0377032,0.032013,0.0263788,0.0207367,0.0150171,0.00914638,0.00304642,-0.00336626,-0.0101853,-0.017524
-0.00639619,0.00343654,0.01223,0.0201922,0.0275061,0.0343321,0.0408109,0.0470653,0.0532011,0.0593085,0.0654633,0.0717278,0.0781525,0.0847766,0.0916298,0.098733,0.1061,0.113737,0.121645,0.129821,0.138257,0.146942,0.15586,0.164996,0.174331,0.183844,0.193512,0.203314,0.213226,0.223222,0.23328,0.243373,0.253476,0.263565,0.273615,0.283601,0.293497,0.303281,0.312928,0.322415,0.331719,0.340818,0.349689,0.358312,0.366665,0.374728,0.382483,0.38991,0.396991,0.40371,0.410049,0.415992,0.421526,0.426636,0.431309,0.435533,0.439298,0.442591,0.445406,0.447734,0.449567,0.450902,0.451731,0.452054,0.451867,0.45117,0.449963,0.448248,0.446028,0.443307,0.440091,0.436387,0.432203,0.427549,0.422436,0.416876,0.410882,0.404468,0.397652,0.390448,0.382877,0.374956,0.366706,0.358148,0.349304,0.340197,0.330851,0.321289,0.311537,0.301621,0.291565,0.281397,0.271143,0.26083,0.250484,0.240132,0.229799,0.219513,0.209298,0.199178,0.189178,0.17932,0.169625,0.160114,0.150803,0.141709,0.132845,0.124222,0.115847,0.107727,0.09986,0.0922443,0.0848715,0.0777288,0.0707982,0.0640558,0.0574717,0.0510096,0.0446268,0.038274,0.0318956,0.0254297,0.0188085,0.0119585,0.00479928,-0.00275791,-0.0108145,-0.019491
-0.00311901,0.00730089,0.0166487,0.0251163,0.0328763,0.0400823,0.0468707,0.0533616,0.0596599,0.0658565,0.0720286,0.0782412,0.084548,0.0909923,0.097608,0.104421,0.111448,0.118702,0.126188,0.133907,0.141854,0.150023,0.158403,0.16698,0.175738,0.18466,0.193725,0.202915,0.212206,0.221577,0.231005,0.240466,0.249936,0.259393,0.268811,0.278168,0.28744,0.296604,0.305636,0.314516,0.32322,0.331727,0.340017,0.348069,0.355864,0.363383,0.370607,0.37752,0.384104,0.390343,0.396223,0.401729,0.406849,0.411569,0.415878,0.419765,0.423223,0.42624,0.428812,0.43093,0.432589,0.433787,0.434518,0.434782,0.434578,0.433905,0.432766,0.431163,0.429099,0.42658,0.423612,0.420201,0.416356,0.412086,0.407402,0.402315,0.396838,0.390983,0.384766,0.378201,0.371305,0.364095,0.356587,0.348802,0.340758,0.332474,0.323971,0.315271,0.306393,0.297361,0.288195,0.278917,0.269551,0.260118,0.250641,0.241142,0.231642,0.222162,0.212724,0.203348,0.194053,0.184857,0.175777,0.166829,0.158026,0.149381,0.140904,0.132602,0.12448,0.116539,0.108778,0.101191,0.0937682,0.0864956,0.0793543,0.0723198,0.0653624,0.0584465,0.0515307,0.0445672,0.0375025,0.0302767,0.0228236,0.0150705,0.00693675,-0.00166766,-0.0108453,-0.0207156
0.00142878,0.0122321,0.0219494,0.0307571,0.0388159,0.0462717,0.0532552,0.0598832,0.0662587,0.0724717,0.0786004,0.0847111,0.0908601,0.0970933,0.103448,0.109953,0.116631,0.123497,0.13056,0.137824,0.145289,0.152952,0.160804,0.168835,0.177031,0.185379,0.193859,0.202455,0.211146,0.219912,0.22873,0.237581,0.24644,0.255286,0.264095,0.272846,0.281516,0.290083,0.298525,0.306821,0.31495,0.32289,0.330624,0.338131,0.345393,0.352392,0.359111,0.365534,0.371646,0.377432,0.382878,0.387972,0.392702,0.397057,0.401026,0.404602,0.407776,0.410541,0.41289,0.414821,0.416327,0.417407,0.418059,0.418281,0.418075,0.417442,0.416383,0.414902,0.413004,0.410694,0.407977,0.404862,0.401357,0.39747,0.39321,0.38859,0.38362,0.378313,0.372681,0.366738,0.360499,0.353977,0.347189,0.340151,0.332878,0.325388,0.317698,0.309825,0.301787,0.293601,0.285287,0.276862,0.268345,0.259754,0.251106,0.24242,0.233713,0.225002,0.216304,0.207635,0.19901,0.190443,0.181947,0.173534,0.165214,0.156997,0.148887,0.140891,0.133009,0.125241,0.117582,0.110026,0.102561,0.0951715,0.087838,0.080536,0.073236,0.0659032,0.0584972,0.0509722,0.0432764,0.0353519,0.0271347,0.0185538,0.0095302,-2.42013e-05,-0.010209,-0.0211378
0.00724013,0.0182454,0.0281645,0.0371588,0.045378,0.0529595,0.060028,0.066696,0.0730639,0.0792205,0.0852437,0.0912007,0.0971489,0.103137,0.109203,0.115381,0.121695,0.128163,0.134797,0.141606,0.148592,0.155753,0.163085,0.17058,0.178227,0.186014,0.193924,0.201942,0.210049,0.218227,0.226456,0.234715,0.242982,0.251238,0.259459,0.267626,0.275716,0.283708,0.291581,0.299315,0.306891,0.314288,0.321488,0.328473,0.335225,0.341729,0.347967,0.353925,0.359589,0.364945,0.369982,0.374688,0.379052,0.383065,0.386719,0.390005,0.392918,0.395452,0.397602,0.399365,0.400738,0.401719,0.402309,0.402507,0.402314,0.401733,0.400767,0.39942,0.397697,0.395602,0.393144,0.390328,0.387163,0.383657,0.37982,0.375662,0.371192,0.366423,0.361364,0.356029,0.35043,0.344579,0.33849,0.332176,0.32565,0.318928,0.312021,0.304946,0.297717,0.290347,0.282852,0.275246,0.267543,0.259757,0.251904,0.243996,0.236048,0.228072,0.220081,0.212087,0.204101,0.196134,0.188196,0.180293,0.172434,0.164624,0.156866,0.149163,0.141512,0.133911,0.126354,0.118833,0.111333,0.10384,0.0963329,0.0887871,0.0811737,0.0734586,0.065603,0.0575627,0.0492878,0.040723,0.0318065,0.0224703,0.0126386,0.00222715,-0.00885806,-0.0207222
0.0142982,0.0253436,0.035312,0.0443517,0.0526019,0.0601917,0.0672396,0.0738537,0.0801312,0.0861591,0.0920144,0.0977643,0.103467,0.109172,0.114921,0.120747,0.126679,0.132736,0.138935,0.145284,0.151789,0.158451,0.165268,0.172234,0.179341,0.186577,0.193929,0.201382,0.208921,0.216527,0.224182,0.231866,0.23956,0.247243,0.254896,0.262497,0.270026,0.277464,0.284789,0.291983,0.299027,0.305902,0.31259,0.319075,0.32534,0.33137,0.33715,0.342665,0.347904,0.352854,0.357504,0.361845,0.365866,0.36956,0.37292,0.375939,0.378612,0.380936,0.382907,0.384522,0.38578,0.386681,0.387226,0.387415,0.38725,0.386736,0.385875,0.384672,0.383132,0.381262,0.379066,0.376554,0.373732,0.370608,0.367192,0.363491,0.359516,0.355276,0.350782,0.346043,0.34107,0.335874,0.330466,0.324857,0.319057,0.313079,0.306932,0.30063,0.294182,0.287599,0.280894,0.274077,0.267158,0.260149,0.253059,0.245899,0.238679,0.231408,0.224095,0.216748,0.209376,0.201984,0.194579,0.187167,0.17975,0.172331,0.164911,0.15749,0.150063,0.142626,0.135172,0.127689,0.120164,0.11258,0.104917,0.0971497,0.0892504,0.0811859,0.0729187,0.0644063,0.0556013,0.0464508,0.0368963,0.0268731,0.0163098,0.0051274,-0.00676103,-0.0194513
0.0225804,0.0335208,0.0434001,0.0523553,0.060516,0.0680035,0.0749304,0.0814,0.0875064,0.0933344,0.0989594,0.104448,0.10986,0.115243,0.120642,0.126092,0.131621,0.137252,0.143002,0.148884,0.154905,0.161067,0.167371,0.173813,0.180385,0.187079,0.193883,0.200783,0.207765,0.214813,0.221908,0.229033,0.236169,0.243298,0.250398,0.257452,0.264439,0.27134,0.278136,0.284809,0.291341,0.297714,0.303911,0.309917,0.315716,0.321293,0.326635,0.33173,0.336565,0.34113,0.345415,0.349411,0.353111,0.356507,0.359594,0.362366,0.364821,0.366954,0.368764,0.370251,0.371412,0.37225,0.372766,0.372961,0.37284,0.372405,0.371661,0.370613,0.369266,0.367626,0.365701,0.363496,0.36102,0.358279,0.355282,0.352037,0.348553,0.344837,0.340898,0.336746,0.332388,0.327834,0.323092,0.318171,0.313079,0.307826,0.302418,0.296866,0.291176,0.285358,0.279418,0.273364,0.267203,0.260943,0.254591,0.248153,0.241635,0.235044,0.228384,0.221661,0.214879,0.208041,0.201151,0.19421,0.187219,0.180179,0.173086,0.165939,0.158731,0.151456,0.144105,0.136666,0.129125,0.121463,0.113662,0.105695,0.097536,0.0891527,0.0805092,0.0715651,0.0622754,0.0525901,0.0424541,0.031807,0.0205821,0.00870674,-0.00389841,-0.0173194
0.0320609,0.0427654,0.0524296,0.0611806,0.0691395,0.0764208,0.0831313,0.0893698,0.0952271,0.100785,0.106118,0.111293,0.116366,0.121388,0.126403,0.131448,0.136551,0.141738,0.147028,0.152433,0.157963,0.163622,0.169413,0.175332,0.181374,0.187532,0.193795,0.200151,0.206587,0.213087,0.219635,0.226215,0.232808,0.239395,0.24596,0.252482,0.258943,0.265325,0.27161,0.277781,0.283819,0.289708,0.295433,0.300979,0.30633,0.311475,0.3164,0.321093,0.325545,0.329745,0.333685,0.337357,0.340755,0.343873,0.346707,0.349252,0.351507,0.353468,0.355137,0.356511,0.357593,0.358384,0.358887,0.359104,0.359038,0.358695,0.35808,0.357197,0.356052,0.354651,0.353002,0.35111,0.348983,0.346627,0.34405,0.34126,0.338262,0.335066,0.331677,0.328103,0.324351,0.320428,0.31634,0.312094,0.307695,0.30315,0.298465,0.293644,0.288694,0.283618,0.278422,0.27311,0.267686,0.262154,0.256517,0.250779,0.244942,0.239009,0.232982,0.226862,0.220652,0.214351,0.207959,0.201475,0.194898,0.188225,0.181451,0.174572,0.16758,0.160468,0.153223,0.145834,0.138285,0.130559,0.122635,0.114489,0.106095,0.0974217,0.0884347,0.0790961,0.0693633,0.0591897,0.0485239,0.0373098,0.0254862,0.0129871,-0.000259261,-0.0143292
0.0427122,0.0530621,0.0623958,0.0708321,0.0784848,0.0854622,0.0918658,0.0977904,0.103323,0.108544,0.113524,0.11833,0.123018,0.127639,0.132235,0.136845,0.141499,0.146223,0.151035,0.155952,0.160982,0.166134,0.171408,0.176804,0.182318,0.187944,0.193671,0.199491,0.205389,0.211352,0.217364,0.22341,0.229472,0.235532,0.241574,0.24758,0.253531,0.25941,0.265199,0.270883,0.276444,0.281868,0.287138,0.292241,0.297164,0.301894,0.30642,0.310731,0.314818,0.318672,0.322286,0.325653,0.328768,0.331626,0.334225,0.336561,0.338633,0.340441,0.341984,0.343264,0.344283,0.345042,0.345546,0.345797,0.345801,0.345563,0.345086,0.344378,0.343445,0.342291,0.340924,0.33935,0.337576,0.335608,0.333452,0.331116,0.328604,0.325924,0.323081,0.32008,0.316927,0.313626,0.310182,0.3066,0.302882,0.299033,0.295055,0.290952,0.286724,0.282375,0.277907,0.273319,0.268613,0.263791,0.258851,0.253794,0.24862,0.243329,0.237918,0.232386,0.226732,0.220954,0.215048,0.20901,0.202837,0.196524,0.190063,0.183449,0.176672,0.169722,0.162587,0.155255,0.147708,0.13993,0.1319,0.123595,0.114988,0.106051,0.0967505,0.0870511,0.0769132,0.0662932,0.0551439,0.0434136,0.0310469,0.0179841,0.00416141,-0.0104883
0.0545066,0.0643932,0.0732903,0.0813095,0.0885585,0.0951402,0.101151,0.106683,0.111818,0.116636,0.121205,0.125589,0.129845,0.134023,0.138165,0.14231,0.146489,0.150727,0.155046,0.15946,0.163981,0.168617,0.17337,0.178242,0.183228,0.188323,0.19352,0.198808,0.204176,0.209609,0.215095,0.220616,0.226158,0.231704,0.237236,0.242738,0.248192,0.253582,0.258891,0.264104,0.269204,0.274177,0.279009,0.283687,0.288197,0.29253,0.296674,0.300619,0.304359,0.307884,0.311189,0.314268,0.317118,0.319734,0.322114,0.324258,0.326165,0.327834,0.329268,0.330469,0.331438,0.33218,0.332699,0.332998,0.333084,0.332961,0.332635,0.332111,0.331397,0.330497,0.329419,0.328169,0.326752,0.325174,0.323442,0.321561,0.319535,0.317369,0.315069,0.312637,0.310078,0.307393,0.304587,0.30166,0.298614,0.29545,0.292169,0.288771,0.285255,0.28162,0.277865,0.273988,0.269987,0.26586,0.261603,0.257215,0.25269,0.248026,0.243218,0.238263,0.233154,0.227888,0.222458,0.216859,0.211084,0.205125,0.198974,0.192623,0.186061,0.179276,0.172257,0.164988,0.157454,0.149637,0.141516,0.133069,0.124271,0.115094,0.105508,0.0954782,0.0849691,0.0739402,0.0623481,0.0501461,0.0372842,0.0237091,0.00936475,-0.00580755
0.0674163,0.0767398,0.085102,0.0926089,0.099363,0.105462,0.111,0.116062,0.120731,0.125081,0.129181,0.133092,0.136869,0.140563,0.144216,0.147865,0.151542,0.155273,0.159078,0.162975,0.166975,0.171087,0.175313,0.179656,0.184113,0.188679,0.193347,0.198107,0.202949,0.20786,0.212826,0.217833,0.222864,0.227905,0.232939,0.237949,0.242919,0.247833,0.252675,0.25743,0.262083,0.26662,0.271029,0.275296,0.279409,0.28336,0.287138,0.290734,0.294142,0.297354,0.300366,0.303173,0.305773,0.308163,0.310341,0.312308,0.314064,0.31561,0.31695,0.318085,0.319019,0.319757,0.320303,0.320662,0.32084,0.320843,0.320677,0.320347,0.31986,0.319223,0.31844,0.317519,0.316464,0.31528,0.313974,0.312549,0.311009,0.309358,0.307599,0.305734,0.303765,0.301693,0.299519,0.297242,0.294862,0.292377,0.289785,0.287083,0.284269,0.281339,0.278288,0.275112,0.271806,0.268364,0.264781,0.26105,0.257166,0.25312,0.248907,0.244519,0.239948,0.235188,0.230229,0.225063,0.219681,0.214075,0.208233,0.202145,0.195801,0.189186,0.182287,0.175091,0.167579,0.159734,0.151537,0.142966,0.133996,0.124601,0.114754,0.104422,0.0935713,0.0821661,0.0701668,0.0575313,0.044215,0.0301708,0.0153497,-0.000298807
0.0814146,0.0900823,0.0978181,0.104724,0.110897,0.116433,0.121419,0.125941,0.130076,0.133897,0.137471,0.140857,0.14411,0.147279,0.150406,0.153528,0.156675,0.159875,0.163149,0.166512,0.169978,0.173555,0.177247,0.181057,0.184981,0.189017,0.193156,0.197391,0.201712,0.206105,0.210558,0.215057,0.219586,0.224131,0.228676,0.233205,0.237702,0.242151,0.246538,0.250848,0.255067,0.259182,0.26318,0.26705,0.270781,0.274364,0.27779,0.281051,0.284141,0.287055,0.289789,0.292339,0.294703,0.296881,0.298871,0.300675,0.302294,0.30373,0.304988,0.30607,0.306982,0.307727,0.308312,0.308742,0.309024,0.309162,0.309165,0.309037,0.308786,0.308417,0.307936,0.307349,0.306661,0.305876,0.304999,0.304032,0.302981,0.301845,0.300628,0.299329,0.297949,0.296488,0.294943,0.293313,0.291594,0.289783,0.287875,0.285866,0.283748,0.281517,0.279165,0.276684,0.274066,0.271304,0.268388,0.265309,0.262059,0.258626,0.255003,0.251177,0.247141,0.242882,0.238391,0.233657,0.228669,0.223415,0.217884,0.212063,0.205939,0.1995,0.19273,0.185613,0.178134,0.170275,0.162016,0.153336,0.144212,0.13462,0.124533,0.113922,0.102757,0.0910041,0.0786278,0.0655909,0.051854,0.0373759,0.0221142,0.00602605
0.0964754,0.104401,0.111425,0.117645,0.123157,0.128051,0.132414,0.136326,0.139862,0.143095,0.146088,0.1489,0.151584,0.154187,0.156752,0.159314,0.161905,0.16455,0.16727,0.170083,0.173001,0.176032,0.179182,0.182451,0.185839,0.189342,0.192953,0.196664,0.200465,0.204344,0.208289,0.212286,0.216321,0.220378,0.224442,0.228499,0.232532,0.236527,0.24047,0.244346,0.248143,0.251847,0.255447,0.258932,0.262293,0.26552,0.268607,0.271546,0.274332,0.276961,0.279429,0.281735,0.283876,0.285854,0.287669,0.289322,0.290817,0.292156,0.293343,0.294384,0.295284,0.296048,0.296682,0.297192,0.297586,0.297869,0.298049,0.298131,0.298123,0.298029,0.297856,0.297609,0.297292,0.296909,0.296465,0.295961,0.295399,0.294781,0.294106,0.293375,0.292585,0.291734,0.290818,0.289834,0.288776,0.287637,0.286412,0.285093,0.28367,0.282135,0.280479,0.278691,0.27676,0.274674,0.272423,0.269995,0.267376,0.264556,0.26152,0.258258,0.254755,0.250999,0.246977,0.242676,0.238083,0.233185,0.227968,0.222419,0.216523,0.210265,0.203631,0.196605,0.18917,0.181308,0.173,0.164226,0.154965,0.145194,0.134887,0.124019,0.112562,0.100485,0.0877568,0.074345,0.0602148,0.0453307,0.0296566,0.0131562
0.112574,0.119676,0.125907,0.131364,0.136138,0.140317,0.143985,0.147221,0.150098,0.152684,0.155043,0.157231,0.159301,0.161299,0.163266,0.165237,0.167243,0.169308,0.171455,0.1737,0.176055,0.178528,0.181124,0.183846,0.186692,0.189659,0.192739,0.195926,0.199209,0.202577,0.206018,0.209518,0.213063,0.216639,0.22023,0.223822,0.2274,0.230951,0.234458,0.237911,0.241295,0.244598,0.247811,0.250923,0.253924,0.256808,0.259566,0.262195,0.264688,0.267043,0.269257,0.27133,0.27326,0.27505,0.2767,0.278214,0.279594,0.280846,0.281974,0.282983,0.283881,0.284672,0.285364,0.285964,0.286478,0.286914,0.287278,0.287577,0.287817,0.288005,0.288145,0.288243,0.288302,0.288326,0.288318,0.28828,0.288212,0.288114,0.287985,0.287823,0.287625,0.287386,0.287101,0.286764,0.286368,0.285904,0.285362,0.284734,0.284007,0.28317,0.282211,0.281117,0.279873,0.278467,0.276883,0.275106,0.273122,0.270916,0.268472,0.265775,0.262809,0.259559,0.256011,0.252148,0.247956,0.24342,0.238524,0.233253,0.227592,0.221526,0.215038,0.208112,0.200731,0.192879,0.184536,0.175683,0.1663,0.156365,0.145856,0.134749,0.123018,0.110637,0.0975782,0.0838126,0.0693106,0.0540419,0.037976,0.0210829
0.129687,0.135888,0.14125,0.145868,0.149832,0.153226,0.156133,0.158629,0.160785,0.16267,0.164343,0.165861,0.167274,0.168627,0.16996,0.171307,0.1727,0.174161,0.175713,0.177371,0.179146,0.181048,0.183081,0.185248,0.187545,0.189971,0.192519,0.19518,0.197946,0.200804,0.203743,0.20675,0.20981,0.212909,0.216033,0.219168,0.222298,0.225411,0.228492,0.231528,0.234509,0.237421,0.240256,0.243003,0.245655,0.248205,0.250646,0.252973,0.255183,0.257274,0.259245,0.261094,0.262823,0.264434,0.265929,0.267312,0.268587,0.269761,0.270837,0.271824,0.272727,0.273553,0.274311,0.275007,0.275648,0.276243,0.276798,0.277319,0.277814,0.278289,0.278747,0.279195,0.279635,0.280071,0.280503,0.280935,0.281364,0.28179,0.28221,0.282621,0.283018,0.283395,0.283745,0.284059,0.284328,0.284542,0.284688,0.284755,0.284729,0.284594,0.284338,0.283942,0.283391,0.282669,0.281757,0.280639,0.279296,0.27771,0.275864,0.273739,0.271318,0.268583,0.265515,0.262099,0.258316,0.25415,0.249584,0.244602,0.239186,0.233321,0.22699,0.220176,0.212862,0.205032,0.196666,0.187747,0.178256,0.168173,0.157477,0.146146,0.134158,0.121489,0.108116,0.094013,0.0791551,0.0635168,0.0470731,0.0297998
0.147792,0.153018,0.157439,0.161147,0.16423,0.166772,0.168854,0.170549,0.171928,0.173057,0.173994,0.174794,0.175507,0.176176,0.17684,0.177533,0.178284,0.179117,0.180051,0.181102,0.182283,0.1836,0.185059,0.18666,0.188402,0.190282,0.192293,0.194426,0.196673,0.199022,0.201461,0.203977,0.206555,0.209182,0.211844,0.214527,0.217215,0.219897,0.222558,0.225186,0.227771,0.2303,0.232764,0.235156,0.237466,0.239689,0.241821,0.243855,0.245791,0.247627,0.249361,0.250995,0.25253,0.25397,0.255318,0.256578,0.257756,0.258858,0.25989,0.26086,0.261775,0.262643,0.263472,0.26427,0.265044,0.265803,0.266554,0.267303,0.268057,0.268823,0.269604,0.270406,0.271231,0.272082,0.27296,0.273865,0.274796,0.27575,0.276725,0.277713,0.278711,0.279709,0.280698,0.281669,0.28261,0.283508,0.284349,0.285118,0.285799,0.286376,0.286829,0.287141,0.287292,0.287263,0.287034,0.286584,0.285892,0.284937,0.2837,0.282158,0.280293,0.278083,0.275508,0.27255,0.269188,0.265405,0.261181,0.256499,0.251341,0.24569,0.239527,0.232838,0.225604,0.217807,0.209432,0.200461,0.190875,0.180656,0.169786,0.158245,0.146013,0.133069,0.119394,0.104965,0.0897625,0.0737645,0.0569512,0.0393035
0.166867,0.171049,0.174459,0.177188,0.179324,0.18095,0.182144,0.18298,0.183526,0.183846,0.183998,0.184036,0.184007,0.183954,0.183915,0.183921,0.184002,0.184181,0.184475,0.184902,0.18547,0.186188,0.18706,0.188086,0.189265,0.190592,0.192062,0.193665,0.195391,0.19723,0.199169,0.201195,0.203295,0.205453,0.207656,0.209891,0.212142,0.214398,0.216645,0.218871,0.221065,0.223217,0.225318,0.22736,0.229335,0.23124,0.233068,0.234817,0.236485,0.238071,0.239576,0.241001,0.242349,0.243624,0.24483,0.245972,0.247058,0.248094,0.249087,0.250045,0.250977,0.251891,0.252796,0.2537,0.254611,0.255538,0.256488,0.257468,0.258486,0.259546,0.260654,0.261814,0.263028,0.264298,0.265625,0.267009,0.268446,0.269934,0.271467,0.273039,0.274643,0.276269,0.277906,0.279541,0.281162,0.282753,0.284298,0.28578,0.287179,0.288477,0.289653,0.290684,0.29155,0.292228,0.292695,0.292926,0.2929,0.292591,0.291977,0.291035,0.28974,0.28807,0.286004,0.283519,0.280593,0.277207,0.273341,0.268974,0.264088,0.258664,0.252686,0.246134,0.238993,0.231245,0.222874,0.213862,0.204194,0.193851,0.182819,0.171078,0.158613,0.145405,0.131436,0.11669,0.101149,0.084796,0.0676159,0.0495941
0.186892,0.189962,0.192294,0.193979,0.195104,0.195751,0.195998,0.195918,0.195577,0.195038,0.194358,0.193589,0.192777,0.191964,0.191187,0.190476,0.189859,0.189358,0.188991,0.188772,0.188712,0.188816,0.189088,0.189529,0.190136,0.190904,0.191826,0.192894,0.194098,0.195425,0.196864,0.198401,0.200022,0.201714,0.203461,0.205251,0.207069,0.208903,0.210739,0.212568,0.214376,0.216156,0.217899,0.219596,0.221242,0.222833,0.224363,0.225831,0.227236,0.228578,0.229858,0.231079,0.232244,0.233358,0.234426,0.235455,0.236452,0.237425,0.238382,0.239332,0.240284,0.241246,0.242229,0.243242,0.244292,0.245389,0.246541,0.247755,0.249038,0.250395,0.251833,0.253353,0.254959,0.256652,0.258433,0.260299,0.262247,0.264274,0.266372,0.268535,0.270752,0.273014,0.275306,0.277616,0.279928,0.282223,0.284484,0.286691,0.288823,0.290857,0.292769,0.294537,0.296134,0.297536,0.298716,0.299648,0.300305,0.300661,0.30069,0.300365,0.299661,0.298551,0.297012,0.295019,0.292549,0.289579,0.286087,0.282053,0.277456,0.272278,0.266498,0.2601,0.253067,0.245381,0.237027,0.227988,0.218249,0.207795,0.19661,0.18468,0.17199,0.158524,0.144268,0.129209,0.113332,0.0966247,0.0790759,0.0606756