-0,-0,-0,-0,-0,-0,-0,-0,-0,-0,-0,-0,-0,-0,-0,-0,-0,-0,-0,-0,-0,-0,-0,-0,-0,-0,-0,-0,-0,-0,-0,-0,-0,-0,-0,-0,-0,-0,-0,-0,-0,-0,-0,-0,-0,-0,-0,-0,-0,-0,-0,-0,-0,-0,-0,-0,-0,-0,-0,-0,-0,-0,-0,-0,-0,-0,-0,-0,-0,-0,-0,-0,-0,-0,-0,-0,-0,-0,-0,-0,-0,-0,-0,-0,-0,-0,-0,-0,-0,-0,-0,-0,-0,-0,-0,-0,-0,-0,-0,-0,-0,-0,-0,-0,-0,-0,-0,-0,-0,-0,-0,-0,-0,-0,-0,-0,-0,-0,-0,-0,-0,-0,-0,-0,-0,-0,-0,-0
-0,2.74261e-08,7.57099e-08,1.15944e-07,1.34504e-07,1.26343e-07,8.36383e-08,3.79901e-09,-8.7296e-08,-2.15623e-07,-3.69345e-07,-5.55435e-07,-7.56315e-07,-9.93349e-07,-1.24832e-06,-1.49137e-06,-1.77784e-06,-2.05833e-06,-2.37331e-06,-2.67018e-06,-3.00745e-06,-3.31257e-06,-3.67098e-06,-4.00481e-06,-4.31049e-06,-4.67784e-06,-4.99146e-06,-5.36048e-06,-5.66821e-06,-6.04562e-06,-6.37168e-06,-6.66359e-06,-7.03286e-06,-7.31821e-06,-7.68083e-06,-7.98654e-06,-8.25296e-06,-8.59939e-06,-8.85651e-06,-9.17961e-06,-9.42724e-06,-9.7392e-06,-9.99796e-06,-1.02235e-05,-1.05054e-05,-1.07225e-05,-1.09742e-05,-1.11806e-05,-1.14109e-05,-1.1617e-05,-1.17998e-05,-1.19882e-05,-1.21619e-05,-1.23214e-05,-1.24812e-05,-1.26094e-05,-1.27518e-05,-1.28892e-05,-1.29672e-05,-1.30877e-05,-1.31367e-05,-1.32216e-05,-1.33224e-05,-1.33203e-05,-1.33932e-05,-1.33603e-05,-1.3379e-05,-1.3435e-05,-1.33571e-05,-1.3371e-05,-1.32725e-05,-1.32583e-05,-1.31198e-05,-1.30375e-05,-1.30092e-05,-1.2839e-05,-1.2758e-05,-1.25506e-05,-1.23842e-05,-1.22825e-05,-1.20523e-05,-1.18989e-05,-1.16315e-05,-1.13893e-05,-1.12089e-05,-1.09255e-05,-1.06991e-05,-1.03815e-05,-1.00727e-05,-9.81421e-06,-9.48508e-06,-9.19154e-06,-8.84199e-06,-8.5206e-06,-8.14645e-06,-7.76751e-06,-7.4181e-06,-7.04133e-06,-6.65409e-06,-6.28515e-06,-5.90838e-06,-5.53459e-06,-5.15378e-06,-4.77458e-06,-4.39623e-06,-4.00483e-06,-3.6166e-06,-3.25829e-06,-2.89186e-06,-2.52384e-06,-2.20101e-06,-1.8687e-06,-1.58447e-06,-1.29702e-06,-1.00487e-06,-7.75744e-07,-5.35798e-07,-3.69617e-07,-2.0869e-07,-4.00257e-08,4.01388e-08,1.38462e-07,1.39704e-07,1.33799e-07,1.51719e-07,7.80264e-08,6.4303e-08,-0
-0,6.14925e-08,1.746e-07,2.60234e-07,2.72449e-07,1.87911e-07,-3.02647e-09,-3.16708e-07,-7.30654e-07,-1.23325e-06,-1.84539e-06,-2.55346e-06,-3.35248e-06,-4.22934e-06,-5.19966e-06,-6.20502e-06,-7.25708e-06,-8.37488e-06,-9.53469e-06,-1.07374e-05,-1.19644e-05,-1.32224e-05,-1.45009e-05,-1.58266e-05,-1.7102e-05,-1.84005e-05,-1.97184e-05,-2.10316e-05,-2.2344e-05,-2.36532e-05,-2.49855e-05,-2.62288e-05,-2.74931e-05,-2.87499e-05,-2.99943e-05,-3.12479e-05,-3.23991e-05,-3.35692e-05,-3.47182e-05,-3.58424e-05,-3.693e-05,-3.80044e-05,-3.9065e-05,-4.00344e-05,-4.10083e-05,-4.19424e-05,-4.28522e-05,-4.37119e-05,-4.45528e-05,-4.53557e-05,-4.61034e-05,-4.6825e-05,-4.74916e-05,-4.81332e-05,-4.87178e-05,-4.92731e-05,-4.97668e-05,-5.02537e-05,-5.06785e-05,-5.10359e-05,-5.1357e-05,-5.16026e-05,-5.18772e-05,-5.20688e-05,-5.2185e-05,-5.22524e-05,-5.22316e-05,-5.22669e-05,-5.22104e-05,-5.20748e-05,-5.18859e-05,-5.1645e-05,-5.13372e-05,-5.09327e-05,-5.05968e-05,-5.01713e-05,-4.96751e-05,-4.90969e-05,-4.84149e-05,-4.77966e-05,-4.71021e-05,-4.63456e-05,-4.5506e-05,-4.4564e-05,-4.36691e-05,-4.2714e-05,-4.17115e-05,-4.06316e-05,-3.946e-05,-3.83142e-05,-3.71248e-05,-3.59039e-05,-3.46284e-05,-3.33238e-05,-3.19655e-05,-3.05468e-05,-2.91309e-05,-2.76961e-05,-2.62301e-05,-2.47637e-05,-2.3292e-05,-2.18321e-05,-2.03603e-05,-1.88989e-05,-1.74352e-05,-1.59753e-05,-1.45166e-05,-1.30897e-05,-1.1707e-05,-1.03419e-05,-9.0273e-06,-7.78694e-06,-6.60817e-06,-5.5224e-06,-4.47064e-06,-3.50268e-06,-2.64182e-06,-1.88313e-06,-1.26618e-06,-7.03791e-07,-2.58686e-07,5.4143e-08,2.40344e-07,2.68334e-07,2.65656e-07,1.90636e-07,7.64839e-08,-0
-0,9.84903e-08,2.42051e-07,3.27132e-07,2.5903e-07,-5.87557e-09,-4.94126e-07,-1.21802e-06,-2.17185e-06,-3.33379e-06,-4.68897e-06,-6.26065e-06,-8.0098e-06,-9.94282e-06,-1.20324e-05,-1.42605e-05,-1.65907e-05,-1.9011e-05,-2.15642e-05,-2.41706e-05,-2.68778e-05,-2.96045e-05,-3.24219e-05,-3.52532e-05,-3.81138e-05,-4.09675e-05,-4.38078e-05,-4.67165e-05,-4.95538e-05,-5.2448e-05,-5.5288e-05,-5.8102e-05,-6.08712e-05,-6.35779e-05,-6.63342e-05,-6.89987e-05,-7.16133e-05,-7.41761e-05,-7.66487e-05,-7.91434e-05,-8.15012e-05,-8.38688e-05,-8.6138e-05,-8.83228e-05,-9.04524e-05,-9.24792e-05,-9.44773e-05,-9.63575e-05,-9.81919e-05,-9.99378e-05,-0.000101575,-0.000103155,-0.00010463,-0.000106008,-0.000107309,-0.000108496,-0.000109611,-0.000110608,-0.000111535,-0.000112366,-0.000113026,-0.000113633,-0.000114119,-0.000114521,-0.000114846,-0.00011495,-0.000115002,-0.000114938,-0.000114781,-0.000114559,-0.000114096,-0.000113618,-0.000112909,-0.000112132,-0.000111257,-0.000110277,-0.000109246,-0.000107958,-0.000106588,-0.000105122,-0.000103542,-0.000101923,-0.000100071,-9.8124e-05,-9.60882e-05,-9.3944e-05,-9.17662e-05,-8.93952e-05,-8.69255e-05,-8.43797e-05,-8.17371e-05,-7.90658e-05,-7.62656e-05,-7.34232e-05,-7.04607e-05,-6.74195e-05,-6.43318e-05,-6.11861e-05,-5.80019e-05,-5.48063e-05,-5.15809e-05,-4.83651e-05,-4.51494e-05,-4.19419e-05,-3.87502e-05,-3.55665e-05,-3.24244e-05,-2.9324e-05,-2.62881e-05,-2.33479e-05,-2.05007e-05,-1.77583e-05,-1.51955e-05,-1.27628e-05,-1.05016e-05,-8.40644e-06,-6.47454e-06,-4.81106e-06,-3.35571e-06,-2.14334e-06,-1.15758e-06,-3.76487e-07,8.73242e-08,3.34059e-07,3.69041e-07,2.67846e-07,1.52143e-07,-0
-0,1.18819e-07,2.50379e-07,2.3979e-07,-1.32577e-08,-5.97614e-07,-1.54713e-06,-2.88649e-06,-4.59789e-06,-6.67818e-06,-9.097e-06,-1.18353e-05,-1.49022e-05,-1.82548e-05,-2.1891e-05,-2.57375e-05,-2.98082e-05,-3.40328e-05,-3.84174e-05,-4.29662e-05,-4.7624e-05,-5.23873e-05,-5.7223e-05,-6.21558e-05,-6.70782e-05,-7.20731e-05,-7.7023e-05,-8.20008e-05,-8.69838e-05,-9.19427e-05,-9.69009e-05,-0.000101747,-0.000106604,-0.000111326,-0.00011603,-0.000120698,-0.000125205,-0.000129691,-0.000134009,-0.000138274,-0.000142426,-0.000146486,-0.000150441,-0.000154223,-0.000157934,-0.00016147,-0.000164908,-0.000168188,-0.00017136,-0.000174379,-0.000177232,-0.000179949,-0.000182512,-0.000184928,-0.000187149,-0.000189238,-0.000191136,-0.000192892,-0.000194439,-0.000195863,-0.000197087,-0.000198079,-0.000198955,-0.00019958,-0.0002001,-0.000200386,-0.000200415,-0.000200345,-0.000199988,-0.000199538,-0.000198846,-0.000197924,-0.000196783,-0.000195397,-0.000193915,-0.000192135,-0.000190263,-0.000188133,-0.000185732,-0.000183226,-0.000180434,-0.000177544,-0.000174412,-0.000171026,-0.000167534,-0.000163785,-0.000159936,-0.000155876,-0.000151599,-0.000147218,-0.00014263,-0.000137947,-0.000133113,-0.000128165,-0.000123059,-0.000117812,-0.000112495,-0.000107066,-0.000101555,-9.60211e-05,-9.04488e-05,-8.48663e-05,-7.92747e-05,-7.3723e-05,-6.81856e-05,-6.26938e-05,-5.72603e-05,-5.1932e-05,-4.6699e-05,-4.1597e-05,-3.66984e-05,-3.19738e-05,-2.74815e-05,-2.32723e-05,-1.93082e-05,-1.56872e-05,-1.23513e-05,-9.37403e-06,-6.81896e-06,-4.61081e-06,-2.85773e-06,-1.45635e-06,-4.70834e-07,7.41271e-08,3.36348e-07,2.71471e-07,1.31876e-07,-0
-0,1.09778e-07,1.66592e-07,-3.30319e-08,-6.19048e-07,-1.6725e-06,-3.26814e-06,-5.42731e-06,-8.14661e-06,-1.13986e-05,-1.5174e-05,-1.9428e-05,-2.41288e-05,-2.92803e-05,-3.48255e-05,-4.07255e-05,-4.6923e-05,-5.34087e-05,-6.01172e-05,-6.7025e-05,-7.41529e-05,-8.13943e-05,-8.87984e-05,-9.62776e-05,-0.000103827,-0.000111403,-0.000119015,-0.00012661,-0.00013417,-0.00014177,-0.000149286,-0.000156734,-0.000164098,-0.000171368,-0.000178541,-0.000185605,-0.000192536,-0.000199339,-0.000205985,-0.000212491,-0.000218797,-0.000225012,-0.00023102,-0.000236818,-0.000242457,-0.000247871,-0.000253118,-0.00025812,-0.000262946,-0.00026755,-0.000271892,-0.000276044,-0.000279924,-0.000283606,-0.000287022,-0.000290168,-0.000293087,-0.000295714,-0.000298107,-0.000300205,-0.000302063,-0.000303641,-0.000304901,-0.000305898,-0.000306589,-0.000307007,-0.000307139,-0.000306944,-0.000306453,-0.000305657,-0.000304566,-0.000303224,-0.00030144,-0.000299387,-0.000297046,-0.000294381,-0.000291426,-0.000288138,-0.000284555,-0.000280682,-0.000276475,-0.00027199,-0.000267171,-0.000262072,-0.000256712,-0.00025104,-0.00024512,-0.000238896,-0.000232418,-0.000225724,-0.000218766,-0.000211607,-0.00020421,-0.000196665,-0.000188889,-0.000180926,-0.000172836,-0.000164593,-0.000156224,-0.000147794,-0.000139303,-0.000130811,-0.000122293,-0.000113813,-0.000105389,-9.70191e-05,-8.87696e-05,-8.06523e-05,-7.27161e-05,-6.49726e-05,-5.74844e-05,-5.03139e-05,-4.34727e-05,-3.70002e-05,-3.09571e-05,-2.53658e-05,-2.02765e-05,-1.57027e-05,-1.16747e-05,-8.23829e-06,-5.4006e-06,-3.17389e-06,-1.53843e-06,-4.57661e-07,9.98265e-08,2.52621e-07,1.41124e-07,-0
-0,7.30319e-08,-2.44969e-08,-5.18368e-07,-1.57587e-06,-3.29196e-06,-5.72206e-06,-8.92913e-06,-1.28903e-05,-1.75927e-05,-2.29933e-05,-2.90761e-05,-3.57704e-05,-4.30429e-05,-5.08902e-05,-5.92006e-05,-6.79592e-05,-7.70778e-05,-8.65608e-05,-9.62996e-05,-0.000106293,-0.00011652,-0.000126902,-0.000137453,-0.000148046,-0.000158743,-0.00016942,-0.000180155,-0.000190807,-0.00020145,-0.000212066,-0.000222518,-0.000232917,-0.000243124,-0.000253259,-0.000263199,-0.000272926,-0.000282534,-0.000291869,-0.000301054,-0.000309948,-0.000318658,-0.00032713,-0.000335286,-0.000343227,-0.000350847,-0.000358224,-0.000365275,-0.000372062,-0.000378522,-0.000384647,-0.000390461,-0.000395938,-0.000401076,-0.00040588,-0.00041034,-0.000414397,-0.000418116,-0.000421433,-0.000424407,-0.000426951,-0.000429157,-0.000430977,-0.000432313,-0.000433314,-0.000433825,-0.00043398,-0.000433759,-0.000433007,-0.000431912,-0.000430296,-0.000428346,-0.000425912,-0.000422981,-0.000419713,-0.000415913,-0.000411769,-0.000407081,-0.000402003,-0.000396586,-0.000390637,-0.000384348,-0.000377535,-0.000370329,-0.000362811,-0.000354819,-0.000346511,-0.00033774,-0.000328608,-0.000319205,-0.000309419,-0.000299368,-0.000288967,-0.000278332,-0.000267406,-0.000256227,-0.000244873,-0.000233309,-0.000221576,-0.000209754,-0.000197829,-0.000185886,-0.000173932,-0.000162015,-0.000150152,-0.000138408,-0.000126809,-0.000115424,-0.000104269,-9.34256e-05,-8.2918e-05,-7.28081e-05,-6.32003e-05,-5.40843e-05,-4.55149e-05,-3.76162e-05,-3.03592e-05,-2.38709e-05,-1.81146e-05,-1.31135e-05,-8.98501e-06,-5.63088e-06,-3.15527e-06,-1.42798e-06,-3.53279e-07,7.17943e-08,1.437e-07,-0
-0,2.13209e-09,-3.24164e-07,-1.23559e-06,-2.90629e-06,-5.45878e-06,-8.9501e-06,-1.34132e-05,-1.88731e-05,-2.52794e-05,-3.26104e-05,-4.08012e-05,-4.98208e-05,-5.95836e-05,-7.00472e-05,-8.11663e-05,-9.2833e-05,-0.000105018,-0.000117627,-0.000130639,-0.000143956,-0.000157535,-0.000171387,-0.000185394,-0.000199533,-0.000213733,-0.000227988,-0.00024224,-0.00025647,-0.000270634,-0.000284718,-0.000298683,-0.00031249,-0.000326122,-0.000339578,-0.000352847,-0.000365811,-0.000378563,-0.000391031,-0.000403235,-0.000415107,-0.000426703,-0.00043796,-0.000448839,-0.0004594,-0.00046955,-0.000479367,-0.000488745,-0.00049778,-0.000506388,-0.000514516,-0.000522269,-0.000529527,-0.000536382,-0.000542727,-0.000548655,-0.000554095,-0.000558983,-0.000563425,-0.00056732,-0.000570738,-0.000573598,-0.000575986,-0.000577826,-0.000579077,-0.000579794,-0.00057992,-0.000579576,-0.000578638,-0.0005771,-0.000574987,-0.000572301,-0.000569026,-0.000565188,-0.00056077,-0.000555749,-0.000550169,-0.000543965,-0.000537154,-0.000529883,-0.000522009,-0.000513596,-0.000504564,-0.000494951,-0.000484902,-0.000474296,-0.000463216,-0.000451575,-0.000439424,-0.000426888,-0.000413887,-0.000400511,-0.000386697,-0.00037255,-0.000358013,-0.000343159,-0.000328074,-0.000312717,-0.000297147,-0.00028145,-0.000265626,-0.000249758,-0.000233858,-0.000218034,-0.000202269,-0.000186635,-0.000171236,-0.000156084,-0.000141273,-0.00012684,-0.000112893,-9.94562e-05,-8.66189e-05,-7.44835e-05,-6.30557e-05,-5.24327e-05,-4.27146e-05,-3.39259e-05,-2.61558e-05,-1.93592e-05,-1.36109e-05,-8.9545e-06,-5.35256e-06,-2.80472e-06,-1.12186e-06,-2.34663e-07,4.31379e-08,-0
-0,-9.69239e-08,-7.36298e-07,-2.1818e-06,-4.62659e-06,-8.18579e-06,-1.29424e-05,-1.89154e-05,-2.60995e-05,-3.44887e-05,-4.4013e-05,-5.46326e-05,-6.62591e-05,-7.88491e-05,-9.2303e-05,-0.00010654,-0.000121516,-0.000137101,-0.000153267,-0.00016989,-0.000186956,-0.000204327,-0.000221994,-0.000239928,-0.00025797,-0.000276152,-0.000294344,-0.000312588,-0.000330746,-0.000348886,-0.000366882,-0.000384696,-0.000402378,-0.00041978,-0.000437001,-0.000453928,-0.000470534,-0.000486831,-0.000502745,-0.000518358,-0.000533522,-0.000548348,-0.000562735,-0.000576632,-0.000590121,-0.000603096,-0.000615625,-0.000627616,-0.000639131,-0.000650124,-0.000660529,-0.000670391,-0.000679679,-0.000688393,-0.000696514,-0.000704029,-0.00071096,-0.00071724,-0.000722848,-0.000727841,-0.000732143,-0.000735815,-0.000738779,-0.000741096,-0.000742734,-0.000743582,-0.000743767,-0.000743228,-0.000741983,-0.00074006,-0.000737298,-0.000733877,-0.000729619,-0.00072467,-0.000719059,-0.000712597,-0.000705476,-0.000697508,-0.000688831,-0.000679476,-0.000669372,-0.000658636,-0.000647082,-0.000634833,-0.000621959,-0.000608381,-0.000594236,-0.000579368,-0.000563878,-0.000547858,-0.000531239,-0.00051416,-0.000496531,-0.000478478,-0.000459933,-0.000440974,-0.000421721,-0.000402142,-0.000382289,-0.000362279,-0.000342102,-0.000321877,-0.000301601,-0.000281392,-0.000261293,-0.00024135,-0.000221671,-0.000202348,-0.000183417,-0.000165008,-0.000147171,-0.000130026,-0.000113616,-9.8033e-05,-8.33999e-05,-6.97603e-05,-5.71883e-05,-4.58395e-05,-3.56913e-05,-2.68388e-05,-1.92809e-05,-1.3012e-05,-8.13125e-06,-4.50832e-06,-2.07344e-06,-6.64466e-07,-2.87199e-08,-0
-0,-2.23684e-07,-1.24998e-06,-3.35405e-06,-6.71861e-06,-1.14778e-05,-1.76881e-05,-2.54002e-05,-3.45781e-05,-4.51864e-05,-5.71984e-05,-7.05161e-05,-8.5081e-05,-0.000100783,-0.000117573,-0.000135296,-0.000153882,-0.000173264,-0.000193305,-0.000213957,-0.000235092,-0.000256672,-0.000278569,-0.000300756,-0.000323151,-0.00034565,-0.000368227,-0.000390799,-0.000413337,-0.000435775,-0.000458107,-0.000480183,-0.000502055,-0.000523656,-0.000544962,-0.000565955,-0.000586516,-0.000606729,-0.000626455,-0.000645774,-0.000664581,-0.000682932,-0.000700755,-0.000717982,-0.000734686,-0.000750753,-0.000766272,-0.000781111,-0.000795377,-0.000808957,-0.000821846,-0.000834077,-0.000845537,-0.000856341,-0.00086635,-0.00087567,-0.000884186,-0.000891946,-0.000898925,-0.000905037,-0.000910382,-0.000914861,-0.00091854,-0.000921322,-0.000923308,-0.000924402,-0.000924563,-0.0009239,-0.000922275,-0.000919831,-0.000916449,-0.000912143,-0.000906892,-0.000900694,-0.000893678,-0.000885707,-0.000876835,-0.000866989,-0.000856207,-0.00084462,-0.000832056,-0.000818706,-0.000804418,-0.00078924,-0.000773309,-0.000756478,-0.000738925,-0.000720528,-0.000701354,-0.000681534,-0.000660966,-0.000639804,-0.000617985,-0.000595643,-0.000572707,-0.000549267,-0.000525445,-0.000501217,-0.000476674,-0.000451927,-0.000426988,-0.000401972,-0.000376914,-0.000351919,-0.000327033,-0.000302374,-0.000278029,-0.000254082,-0.000230659,-0.000207839,-0.000185751,-0.000164472,-0.000144136,-0.000124786,-0.000106547,-8.95674e-05,-7.38788e-05,-5.95986e-05,-4.6842e-05,-3.55927e-05,-2.59828e-05,-1.79312e-05,-1.14953e-05,-6.66275e-06,-3.24575e-06,-1.20583e-06,-1.9852e-07,-0
-0,-3.68329e-07,-1.86312e-06,-4.73639e-06,-9.1818e-06,-1.53061e-05,-2.31898e-05,-3.2842e-05,-4.42636e-05,-5.73743e-05,-7.21174e-05,-8.84411e-05,-0.000106214,-0.000125365,-0.000145762,-0.000167321,-0.000189877,-0.000213346,-0.000237658,-0.000262643,-0.000288258,-0.000314342,-0.000340875,-0.000367707,-0.00039476,-0.000422004,-0.000449279,-0.000476605,-0.000503828,-0.000530987,-0.000557956,-0.000584687,-0.000611128,-0.00063722,-0.000663004,-0.000688361,-0.000713242,-0.000737657,-0.000761527,-0.00078488,-0.000807606,-0.000829787,-0.000851325,-0.000872147,-0.000892337,-0.000911762,-0.000930494,-0.000948438,-0.000965645,-0.000982067,-0.000997599,-0.00101237,-0.00102624,-0.00103924,-0.00105135,-0.00106255,-0.00107285,-0.00108215,-0.00109056,-0.00109797,-0.00110436,-0.00110978,-0.00111414,-0.00111751,-0.00111981,-0.00112109,-0.00112132,-0.00112044,-0.00111848,-0.00111543,-0.00111129,-0.0011061,-0.0010997,-0.00109222,-0.00108366,-0.00107398,-0.00106326,-0.00105132,-0.00103831,-0.00102426,-0.00100908,-0.000992893,-0.000975588,-0.000957262,-0.000937988,-0.000917664,-0.000896432,-0.000874186,-0.000851034,-0.000827087,-0.000802254,-0.000776691,-0.000750329,-0.000723339,-0.00069565,-0.000667357,-0.00063861,-0.000609363,-0.000579731,-0.000549868,-0.000519761,-0.000489578,-0.000459322,-0.00042917,-0.000399129,-0.000369329,-0.000339945,-0.00031102,-0.000282683,-0.000255108,-0.000228366,-0.000202628,-0.000177963,-0.000154531,-0.000132395,-0.000111704,-9.26057e-05,-7.51557e-05,-5.94452e-05,-4.55911e-05,-3.36089e-05,-2.35637e-05,-1.54217e-05,-9.13634e-06,-4.64965e-06,-1.78603e-06,-3.45985e-07,-0
-0,-5.62465e-07,-2.58516e-06,-6.347e-06,-1.20061e-05,-1.96839e-05,-2.94208e-05,-4.1249e-05,-5.51218e-05,-7.09948e-05,-8.87576e-05,-0.000108325,-0.00012962,-0.00015248,-0.00017683,-0.000202487,-0.000229359,-0.00025727,-0.000286124,-0.00031583,-0.000346209,-0.000377198,-0.000408644,-0.000440507,-0.000472594,-0.000504865,-0.000537248,-0.000569616,-0.000601928,-0.000634096,-0.000666091,-0.00069776,-0.000729133,-0.000760069,-0.000790606,-0.000820683,-0.000850166,-0.000879117,-0.000907404,-0.000935087,-0.000962031,-0.00098831,-0.00101383,-0.00103851,-0.00106242,-0.00108545,-0.00110765,-0.00112888,-0.00114928,-0.0011687,-0.00118712,-0.00120457,-0.00122099,-0.00123641,-0.00125069,-0.00126398,-0.00127612,-0.00128714,-0.00129703,-0.00130577,-0.00131337,-0.00131971,-0.00132488,-0.0013288,-0.00133152,-0.00133295,-0.00133317,-0.00133214,-0.00132975,-0.00132613,-0.00132114,-0.00131492,-0.00130736,-0.00129845,-0.0012883,-0.00127675,-0.00126399,-0.00124986,-0.00123441,-0.00121776,-0.00119974,-0.00118055,-0.00116001,-0.00113827,-0.00111543,-0.00109134,-0.00106619,-0.00103983,-0.00101239,-0.000984018,-0.00095461,-0.000924337,-0.000893125,-0.000861151,-0.00082836,-0.000794875,-0.00076084,-0.000726235,-0.000691161,-0.000655797,-0.000620168,-0.000584426,-0.000548623,-0.000512911,-0.000477362,-0.000442081,-0.000407251,-0.000372999,-0.00033942,-0.000306692,-0.000274979,-0.000244392,-0.000215106,-0.000187199,-0.00016087,-0.000136203,-0.000113332,-9.24472e-05,-7.35681e-05,-5.6786e-05,-4.22544e-05,-2.99224e-05,-1.98885e-05,-1.20354e-05,-6.25756e-06,-2.51932e-06,-4.94885e-07,-0
-0,-7.7881e-07,-3.42071e-06,-8.15942e-06,-1.51828e-05,-2.45652e-05,-3.63622e-05,-5.05589e-05,-6.71325e-05,-8.59805e-05,-0.000107031,-0.000130137,-0.000155188,-0.000182081,-0.000210634,-0.000240731,-0.000272176,-0.000304864,-0.000338607,-0.000373289,-0.000408812,-0.000444973,-0.000481716,-0.000518877,-0.000556358,-0.000594016,-0.000631766,-0.000669564,-0.000707234,-0.000744783,-0.00078208,-0.000819044,-0.000855619,-0.000891728,-0.000927343,-0.000962401,-0.000996809,-0.00103056,-0.00106356,-0.00109584,-0.00112726,-0.00115791,-0.00118766,-0.00121643,-0.00124431,-0.00127115,-0.00129703,-0.00132181,-0.00134555,-0.0013682,-0.00138963,-0.00140998,-0.00142907,-0.00144704,-0.00146371,-0.00147913,-0.00149329,-0.00150608,-0.0015176,-0.00152771,-0.00153653,-0.00154395,-0.0015499,-0.00155447,-0.00155756,-0.00155922,-0.00155939,-0.00155812,-0.00155536,-0.00155106,-0.00154524,-0.00153791,-0.00152904,-0.00151866,-0.00150677,-0.00149331,-0.00147836,-0.00146184,-0.00144383,-0.00142438,-0.00140338,-0.00138097,-0.00135703,-0.00133166,-0.00130499,-0.00127691,-0.00124758,-0.00121686,-0.00118488,-0.00115179,-0.00111752,-0.00108224,-0.00104587,-0.00100862,-0.000970412,-0.000931393,-0.000891749,-0.000851433,-0.000810595,-0.000769402,-0.000727878,-0.000686249,-0.00064452,-0.000602922,-0.000561482,-0.000520384,-0.000479792,-0.000439822,-0.000400672,-0.000362491,-0.000325422,-0.000289703,-0.000255418,-0.000222768,-0.000191882,-0.000162951,-0.000136078,-0.000111409,-8.91122e-05,-6.92142e-05,-5.18314e-05,-3.7054e-05,-2.48668e-05,-1.52879e-05,-8.14429e-06,-3.35585e-06,-7.40296e-07,-0
-0,-1.00749e-06,-4.33485e-06,-1.01756e-05,-1.86746e-05,-2.99361e-05,-4.39605e-05,-6.07481e-05,-8.02208e-05,-0.000102305,-0.000126856,-0.000153776,-0.000182877,-0.00021403,-0.000247111,-0.000281894,-0.000318247,-0.000355963,-0.000394924,-0.00043492,-0.000475831,-0.000517531,-0.000559826,-0.000602644,-0.000645779,-0.000689163,-0.000732621,-0.000776095,-0.000819485,-0.000862673,-0.00090561,-0.000948133,-0.000990232,-0.00103177,-0.00107276,-0.0011131,-0.00115268,-0.00119151,-0.00122948,-0.0012666,-0.00130276,-0.001338,-0.00137222,-0.00140533,-0.00143738,-0.00146825,-0.00149798,-0.00152648,-0.0015538,-0.0015798,-0.00160446,-0.00162782,-0.00164978,-0.00167037,-0.00168952,-0.00170728,-0.00172349,-0.00173819,-0.00175137,-0.001763,-0.00177305,-0.00178154,-0.00178839,-0.00179357,-0.00179711,-0.00179895,-0.00179913,-0.00179758,-0.00179434,-0.0017894,-0.00178265,-0.0017742,-0.00176393,-0.00175193,-0.00173824,-0.00172272,-0.00170551,-0.00168646,-0.0016657,-0.00164332,-0.00161914,-0.00159336,-0.00156581,-0.00153663,-0.00150593,-0.00147361,-0.00143986,-0.00140453,-0.00136777,-0.00132973,-0.00129031,-0.00124974,-0.00120794,-0.00116511,-0.0011212,-0.00107635,-0.00103077,-0.00098444,-0.000937499,-0.000890169,-0.000842449,-0.000794573,-0.000746613,-0.000698771,-0.000651131,-0.000603855,-0.000557188,-0.000511209,-0.00046612,-0.000422175,-0.000379481,-0.000338261,-0.000298719,-0.000260979,-0.00022528,-0.000191754,-0.00016061,-0.000131951,-0.000105921,-8.26772e-05,-6.22844e-05,-4.47946e-05,-3.03251e-05,-1.87961e-05,-1.01623e-05,-4.28968e-06,-9.50848e-07,-0
-0,-1.26946e-06,-5.32581e-06,-1.23683e-05,-2.24925e-05,-3.57614e-05,-5.22051e-05,-7.17582e-05,-9.43644e-05,-0.000119881,-0.000148203,-0.000179144,-0.000212577,-0.000248281,-0.000286111,-0.0003259,-0.000367401,-0.000410472,-0.000454887,-0.000500518,-0.000547136,-0.00059461,-0.000642808,-0.000691533,-0.00074066,-0.000790015,-0.000839503,-0.00088897,-0.000938314,-0.000987474,-0.0010363,-0.00108469,-0.00113257,-0.00117983,-0.00122645,-0.00127233,-0.00131735,-0.00136151,-0.00140469,-0.00144691,-0.00148803,-0.0015281,-0.001567,-0.00160465,-0.0016411,-0.00167617,-0.00170999,-0.00174236,-0.0017734,-0.00180298,-0.00183098,-0.00185754,-0.00188245,-0.00190587,-0.00192757,-0.00194773,-0.00196618,-0.00198283,-0.00199781,-0.00201095,-0.00202238,-0.00203194,-0.00203968,-0.00204558,-0.00204953,-0.00205161,-0.00205174,-0.00204996,-0.00204619,-0.0020405,-0.00203283,-0.00202316,-0.00201147,-0.00199777,-0.00198214,-0.00196449,-0.00194487,-0.00192321,-0.00189956,-0.00187406,-0.00184657,-0.00181722,-0.0017859,-0.00175271,-0.0017178,-0.00168104,-0.00164265,-0.00160248,-0.00156069,-0.00151745,-0.00147265,-0.00142652,-0.001379,-0.00133032,-0.00128042,-0.00122947,-0.00117767,-0.00112501,-0.00107167,-0.00101788,-0.00096366,-0.000909251,-0.000854714,-0.000800335,-0.000746154,-0.000692406,-0.00063931,-0.000587024,-0.000535719,-0.000485657,-0.000437042,-0.000390069,-0.000344918,-0.000301839,-0.000261004,-0.000222642,-0.000186908,-0.000154017,-0.000124057,-9.71799e-05,-7.35693e-05,-5.32305e-05,-3.62461e-05,-2.26611e-05,-1.23493e-05,-5.3001e-06,-1.24391e-06,-0
-0,-1.54029e-06,-6.39975e-06,-1.47149e-05,-2.65923e-05,-4.20374e-05,-6.10405e-05,-8.35673e-05,-0.000109485,-0.000138683,-0.00017097,-0.000206209,-0.000244173,-0.000284709,-0.000327574,-0.000372585,-0.000419548,-0.000468204,-0.000518399,-0.000569887,-0.000622529,-0.000676081,-0.000730407,-0.00078537,-0.000840726,-0.000896376,-0.000952123,-0.00100789,-0.00106348,-0.00111884,-0.00117386,-0.00122836,-0.0012823,-0.00133553,-0.00138803,-0.0014397,-0.0014904,-0.00154014,-0.00158877,-0.0016363,-0.0016826,-0.0017277,-0.00177151,-0.00181388,-0.00185491,-0.00189442,-0.00193245,-0.0019689,-0.0020038,-0.00203709,-0.00206863,-0.00209847,-0.00212653,-0.00215282,-0.00217726,-0.00219987,-0.00222061,-0.00223936,-0.00225615,-0.00227094,-0.00228372,-0.00229448,-0.0023031,-0.00230969,-0.00231414,-0.00231641,-0.00231654,-0.00231445,-0.00231019,-0.0023037,-0.00229501,-0.00228411,-0.0022709,-0.00225546,-0.00223779,-0.00221787,-0.00219577,-0.00217135,-0.00214472,-0.00211596,-0.00208497,-0.00205191,-0.00201664,-0.00197928,-0.00193996,-0.00189858,-0.00185533,-0.00181011,-0.00176306,-0.00171438,-0.00166395,-0.00161204,-0.00155855,-0.00150375,-0.00144759,-0.00139025,-0.00133197,-0.00127271,-0.00121267,-0.00115213,-0.0010911,-0.00102988,-0.000968491,-0.000907244,-0.000846243,-0.000785692,-0.000725899,-0.000666965,-0.000609164,-0.000552729,-0.000497853,-0.000444853,-0.000393859,-0.000345113,-0.000298913,-0.000255408,-0.000214876,-0.000177442,-0.00014334,-0.000112658,-8.55651e-05,-6.22023e-05,-4.25914e-05,-2.67566e-05,-1.47044e-05,-6.32886e-06,-1.50789e-06,-0
-0,-1.84254e-06,-7.54319e-06,-1.72336e-05,-3.09524e-05,-4.87214e-05,-7.04653e-05,-9.61118e-05,-0.000125563,-0.000158618,-0.000195126,-0.000234853,-0.000277629,-0.000323194,-0.000371372,-0.000421884,-0.000474518,-0.000529069,-0.000585259,-0.000642922,-0.0007018,-0.000761731,-0.000822477,-0.000883893,-0.000945794,-0.00100796,-0.00107028,-0.00113256,-0.00119469,-0.00125653,-0.00131796,-0.00137885,-0.00143907,-0.00149853,-0.00155715,-0.00161484,-0.00167146,-0.00172699,-0.00178129,-0.00183436,-0.00188604,-0.0019364,-0.00198528,-0.0020326,-0.00207836,-0.00212247,-0.00216494,-0.00220558,-0.00224455,-0.00228165,-0.00231684,-0.00235016,-0.00238142,-0.00241078,-0.00243799,-0.00246323,-0.0024863,-0.00250719,-0.00252595,-0.00254238,-0.00255664,-0.00256858,-0.00257818,-0.00258545,-0.00259035,-0.0025929,-0.00259298,-0.00259063,-0.00258581,-0.00257854,-0.00256876,-0.00255652,-0.00254178,-0.0025245,-0.00250476,-0.00248247,-0.00245773,-0.00243047,-0.00240073,-0.0023686,-0.00233398,-0.00229704,-0.00225766,-0.00221594,-0.00217205,-0.00212585,-0.00207758,-0.00202709,-0.00197458,-0.00192023,-0.00186395,-0.001806,-0.00174631,-0.00168515,-0.00162246,-0.00155848,-0.00149343,-0.00142731,-0.00136032,-0.00129274,-0.00122463,-0.00115627,-0.00108776,-0.00101939,-0.000951247,-0.000883634,-0.000816817,-0.00075098,-0.000686349,-0.00062327,-0.000561892,-0.000502536,-0.000445438,-0.000390803,-0.000338924,-0.000290071,-0.00024444,-0.000202285,-0.000163748,-0.000129068,-9.83475e-05,-7.1716e-05,-4.93351e-05,-3.11656e-05,-1.71999e-05,-7.47388e-06,-1.77013e-06,-0
-0,-2.15062e-06,-8.75887e-06,-1.98878e-05,-3.55775e-05,-5.57747e-05,-8.04264e-05,-0.000109385,-0.000142518,-0.000179662,-0.000220565,-0.00026504,-0.000312815,-0.000363686,-0.000417372,-0.000473658,-0.000532236,-0.000592882,-0.000655373,-0.000719418,-0.000784834,-0.000851354,-0.000918805,-0.000986954,-0.00105561,-0.00112459,-0.00119369,-0.00126277,-0.00133165,-0.00140023,-0.00146834,-0.00153582,-0.00160259,-0.00166849,-0.00173346,-0.0017974,-0.00186016,-0.00192169,-0.00198187,-0.00204068,-0.00209797,-0.00215374,-0.00220791,-0.00226032,-0.00231104,-0.00235988,-0.00240693,-0.00245198,-0.0024951,-0.00253622,-0.00257515,-0.00261205,-0.00264671,-0.00267917,-0.00270933,-0.00273722,-0.00276278,-0.00278586,-0.0028066,-0.00282482,-0.00284055,-0.00285377,-0.00286434,-0.00287238,-0.00287774,-0.0028805,-0.0028806,-0.00287793,-0.00287258,-0.00286446,-0.0028536,-0.00283998,-0.00282359,-0.00280444,-0.00278253,-0.00275782,-0.00273037,-0.00270012,-0.00266716,-0.00263154,-0.00259317,-0.00255221,-0.00250855,-0.00246233,-0.00241369,-0.00236251,-0.00230901,-0.00225308,-0.0021949,-0.00213468,-0.00207232,-0.00200811,-0.00194198,-0.00187424,-0.00180479,-0.0017339,-0.00166184,-0.00158859,-0.00151438,-0.00143951,-0.00136403,-0.00128829,-0.00121234,-0.00113657,-0.00106104,-0.000986046,-0.000911959,-0.0008389,-0.000767196,-0.000697154,-0.000629013,-0.000563073,-0.000499553,-0.000438782,-0.000381022,-0.000326515,-0.000275603,-0.000228443,-0.000185305,-0.000146363,-0.00011184,-8.18266e-05,-5.64563e-05,-3.58355e-05,-1.99111e-05,-8.69177e-06,-2.11369e-06,-0
-0,-2.49058e-06,-1.0035e-05,-2.26951e-05,-4.04347e-05,-6.32079e-05,-9.08782e-05,-0.000123328,-0.000160341,-0.000201724,-0.000247261,-0.000296657,-0.00034969,-0.000406053,-0.000465519,-0.000527769,-0.000592559,-0.000659565,-0.00072855,-0.000799274,-0.000871433,-0.000944828,-0.00101919,-0.00109434,-0.00117001,-0.00124602,-0.00132217,-0.00139827,-0.00147417,-0.00154969,-0.00162471,-0.00169904,-0.00177256,-0.00184514,-0.00191668,-0.00198708,-0.00205618,-0.00212392,-0.00219018,-0.0022549,-0.00231798,-0.00237938,-0.00243899,-0.0024967,-0.0025525,-0.00260627,-0.00265801,-0.0027076,-0.00275508,-0.00280028,-0.00284315,-0.00288371,-0.00292183,-0.00295758,-0.00299071,-0.00302141,-0.00304948,-0.00307488,-0.00309763,-0.00311764,-0.00313497,-0.00314946,-0.00316108,-0.00316987,-0.00317574,-0.00317872,-0.00317877,-0.00317583,-0.00316989,-0.00316094,-0.00314894,-0.00313392,-0.00311583,-0.00309471,-0.00307057,-0.00304334,-0.00301311,-0.00297979,-0.00294347,-0.00290424,-0.002862,-0.0028169,-0.00276883,-0.00271794,-0.00266438,-0.00260804,-0.00254915,-0.00248759,-0.00242356,-0.00235727,-0.00228863,-0.00221794,-0.00214516,-0.00207058,-0.00199415,-0.00191613,-0.0018368,-0.00175617,-0.00167448,-0.00159207,-0.00150897,-0.00142556,-0.00134194,-0.00125848,-0.00117529,-0.00109268,-0.00101102,-0.000930504,-0.000851424,-0.000774187,-0.000698976,-0.000626205,-0.000556053,-0.000488844,-0.00042497,-0.000364629,-0.000308153,-0.00025582,-0.000207831,-0.000164479,-0.000125916,-9.23717e-05,-6.39262e-05,-4.06682e-05,-2.2702e-05,-9.97577e-06,-2.41487e-06,-0