0,0,0,0,0,0,0,0,0,0,0,0,0,0,0,0,0,0,0,0,0,0,0,0,0,0,0,0,0,0,0,0,0,0,0,0,0,0,0,0,0,0,0,0,0,0,0,0,0,0,0,0,0,0,0,0,0,0,0,0,0,0,0,0,0,0,0,0,0,0,0,0,0,0,0,0,0,0,0,0,0,0,0,0,0,0,0,0,0,0,0,0,0,0,0,0,0,0,0,0,0,0,0,0,0,0,0,0,0,0,0,0,0,0,0,0,0,0,0,0,0,0,0,0,0,0,0,0
0,3.90478e-06,1.10871e-05,1.65249e-05,1.73005e-05,1.19323e-05,-1.92181e-07,-2.01109e-05,-4.63966e-05,-7.83112e-05,-0.000117182,-0.000162145,-0.000212882,-0.000268563,-0.000330179,-0.000394019,-0.000460824,-0.000531805,-0.000605453,-0.000681822,-0.000759737,-0.000839622,-0.000920804,-0.00100499,-0.00108597,-0.00116843,-0.00125212,-0.00133551,-0.00141884,-0.00150198,-0.00158658,-0.00166553,-0.00174581,-0.00182562,-0.00190464,-0.00198424,-0.00205734,-0.00213165,-0.00220461,-0.00227599,-0.00234506,-0.00241328,-0.00248063,-0.00254219,-0.00260403,-0.00266334,-0.00272112,-0.0027757,-0.0028291,-0.00288009,-0.00292757,-0.00297339,-0.00301572,-0.00305646,-0.00309358,-0.00312884,-0.00316019,-0.00319111,-0.00321808,-0.00324078,-0.00326117,-0.00327677,-0.0032942,-0.00330637,-0.00331375,-0.00331803,-0.00331671,-0.00331895,-0.00331536,-0.00330675,-0.00329476,-0.00327946,-0.00325991,-0.00323422,-0.0032129,-0.00318588,-0.00315437,-0.00311765,-0.00307435,-0.00303508,-0.00299099,-0.00294295,-0.00288963,-0.00282982,-0.00277299,-0.00271234,-0.00264868,-0.00258011,-0.00250571,-0.00243295,-0.00235742,-0.0022799,-0.0021989,-0.00211606,-0.00202981,-0.00193972,-0.00184981,-0.0017587,-0.00166561,-0.00157249,-0.00147904,-0.00138634,-0.00129288,-0.00120008,-0.00110713,-0.00101443,-0.000921807,-0.000831195,-0.000743396,-0.00065671,-0.000573234,-0.000494471,-0.000419619,-0.000350672,-0.000283886,-0.00022242,-0.000167756,-0.000119579,-8.04025e-05,-4.46907e-05,-1.64266e-05,3.43808e-06,1.52619e-05,1.70392e-05,1.68692e-05,1.21054e-05,4.85673e-06,0
0,4.51258e-06,1.05627e-05,1.34105e-05,7.90739e-06,-8.39585e-06,-3.6688e-05,-7.75855e-05,-0.000132369,-0.000198003,-0.000274296,-0.000362281,-0.000460596,-0.000568291,-0.000684787,-0.000810841,-0.000940619,-0.00107649,-0.00121862,-0.00136528,-0.00151577,-0.00166953,-0.00182569,-0.00198427,-0.00214651,-0.00230439,-0.00246484,-0.00262611,-0.00278673,-0.00294655,-0.00310618,-0.00326634,-0.00341873,-0.00357249,-0.00372449,-0.00387427,-0.00402338,-0.00416412,-0.0043048,-0.0044427,-0.0045767,-0.00470723,-0.00483489,-0.0049593,-0.00507664,-0.00519155,-0.00530245,-0.00540873,-0.00551059,-0.00560837,-0.00570076,-0.00578909,-0.0058717,-0.00594911,-0.00602157,-0.00608879,-0.00615058,-0.00620511,-0.00625903,-0.00630419,-0.00634297,-0.00637613,-0.00640056,-0.00642624,-0.00644225,-0.00645094,-0.00645306,-0.00644546,-0.0064404,-0.00642543,-0.0064023,-0.00637282,-0.00633658,-0.00629253,-0.00623873,-0.00618733,-0.00612699,-0.00605837,-0.00598196,-0.00589529,-0.00580958,-0.00571652,-0.00561594,-0.00550765,-0.00538984,-0.00527167,-0.00514776,-0.00501737,-0.00488015,-0.00473491,-0.004588,-0.00443702,-0.0042814,-0.00412132,-0.00395695,-0.0037879,-0.00361402,-0.00343819,-0.00326058,-0.00308109,-0.00290021,-0.00271973,-0.00253972,-0.00236012,-0.00218148,-0.00200417,-0.0018293,-0.00165517,-0.00148566,-0.00132233,-0.00116203,-0.00100899,-0.000864299,-0.000728077,-0.00060304,-0.000484549,-0.00037711,-0.000282031,-0.000199836,-0.00013356,-7.60549e-05,-3.26993e-05,-3.32614e-06,1.27165e-05,1.38e-05,1.20536e-05,5.57785e-06,0
0,3.64024e-06,4.81197e-06,-1.2982e-06,-1.81423e-05,-4.98808e-05,-9.80503e-05,-0.000163181,-0.00024557,-0.000345753,-0.000460477,-0.000589394,-0.000733408,-0.000890614,-0.0010599,-0.00124031,-0.001432,-0.00162928,-0.00183406,-0.00204653,-0.00226439,-0.00248697,-0.00271285,-0.00294191,-0.00317349,-0.00340821,-0.00363884,-0.00387155,-0.00410463,-0.00433638,-0.00456663,-0.00479538,-0.00502356,-0.00524357,-0.00546326,-0.00568006,-0.00589314,-0.00610373,-0.00630499,-0.00650441,-0.00669896,-0.00688856,-0.00707239,-0.00725094,-0.00742475,-0.00758999,-0.00775057,-0.00790425,-0.00805228,-0.00819298,-0.00832666,-0.00845337,-0.00857381,-0.00868647,-0.00879035,-0.00888776,-0.00897693,-0.00905753,-0.00912882,-0.00919654,-0.00925387,-0.00930124,-0.00933943,-0.00936696,-0.00939259,-0.0094065,-0.00940966,-0.00940294,-0.00938391,-0.00936391,-0.00933196,-0.00928874,-0.00923583,-0.00917349,-0.00910068,-0.00901468,-0.00892734,-0.00882881,-0.00871963,-0.00859976,-0.00846659,-0.0083311,-0.00818552,-0.00803035,-0.00786543,-0.00768801,-0.00750723,-0.00731802,-0.00712081,-0.00691538,-0.00669955,-0.00647976,-0.00625376,-0.00602244,-0.00578443,-0.00554137,-0.00529361,-0.00503997,-0.00478312,-0.00452485,-0.00426446,-0.00400267,-0.00374106,-0.00348133,-0.00322265,-0.00296662,-0.00271422,-0.00246649,-0.00222199,-0.0019847,-0.00175711,-0.00153586,-0.00132545,-0.00112712,-0.000942184,-0.000773716,-0.000616552,-0.000475672,-0.000352601,-0.000248096,-0.000165039,-9.59161e-05,-4.51598e-05,-1.23321e-05,4.48891e-06,5.13306e-06,3.51738e-06,0
0,7.16775e-07,-4.79162e-06,-2.28704e-05,-5.5758e-05,-0.000105831,-0.00017615,-0.00026729,-0.000379397,-0.000512115,-0.0006658,-0.000836125,-0.00102355,-0.00122793,-0.00144737,-0.00168053,-0.0019261,-0.00218426,-0.00244811,-0.00272126,-0.00300197,-0.00328865,-0.0035799,-0.00387505,-0.0041728,-0.00447266,-0.00477565,-0.00507321,-0.0053731,-0.00567195,-0.00596888,-0.00626312,-0.00655488,-0.00684466,-0.00712514,-0.00740448,-0.00767862,-0.00794783,-0.00821283,-0.00846759,-0.0087183,-0.00896257,-0.0092,-0.00942943,-0.00965229,-0.0098674,-0.0100737,-0.0102719,-0.0104619,-0.0106434,-0.0108151,-0.0109784,-0.0111312,-0.0112775,-0.0114118,-0.0115362,-0.0116507,-0.0117542,-0.0118474,-0.0119278,-0.0120038,-0.0120655,-0.0121147,-0.0121524,-0.0121757,-0.0121956,-0.0122007,-0.0121924,-0.0121712,-0.0121348,-0.0120948,-0.01204,-0.0119717,-0.0118907,-0.0117976,-0.0116906,-0.0115684,-0.0114414,-0.0113009,-0.0111481,-0.0109813,-0.0107993,-0.0106108,-0.0104107,-0.0101996,-0.00997557,-0.00973799,-0.00949327,-0.00923875,-0.00897539,-0.00870131,-0.00841634,-0.00812445,-0.00782586,-0.00752023,-0.00720766,-0.00689,-0.00656634,-0.00623711,-0.00590473,-0.00557034,-0.00523529,-0.00489863,-0.00456383,-0.00423156,-0.00390224,-0.00357792,-0.00325935,-0.00294817,-0.00264317,-0.00234846,-0.00206728,-0.0017956,-0.00153908,-0.00129893,-0.00107692,-0.000876427,-0.000691622,-0.000528255,-0.000387029,-0.000269432,-0.000177635,-0.000103236,-5.02742e-05,-1.70951e-05,-9.66824e-07,-6.99722e-07,0
0,-2.90749e-06,-1.74546e-05,-4.8143e-05,-9.92258e-05,-0.000171091,-0.000265108,-0.000383708,-0.000526569,-0.000693069,-0.000882414,-0.00109479,-0.00132513,-0.00157405,-0.00184145,-0.00212491,-0.00242259,-0.00273335,-0.0030571,-0.00338667,-0.00372551,-0.00407244,-0.00442464,-0.00478139,-0.00514147,-0.00550351,-0.00586722,-0.00623281,-0.00659278,-0.0069537,-0.007313,-0.007669,-0.00802085,-0.00836921,-0.00871408,-0.00904881,-0.00938035,-0.00970556,-0.0100241,-0.0103365,-0.0106377,-0.0109329,-0.0112197,-0.0114976,-0.0117661,-0.0120255,-0.0122756,-0.012515,-0.0127446,-0.0129631,-0.0131708,-0.0133675,-0.0135525,-0.0137254,-0.0138895,-0.01404,-0.0141771,-0.0143017,-0.0144141,-0.0145126,-0.0145964,-0.0146735,-0.0147334,-0.0147785,-0.0148091,-0.0148234,-0.0148314,-0.0148218,-0.0147966,-0.0147558,-0.014697,-0.0146318,-0.0145497,-0.0144516,-0.0143382,-0.0142099,-0.0140656,-0.0139032,-0.0137332,-0.0135483,-0.0133479,-0.013132,-0.0128983,-0.0126558,-0.0124001,-0.0121307,-0.0118476,-0.0115484,-0.0112401,-0.0109212,-0.0105911,-0.0102502,-0.00989675,-0.00953557,-0.00916604,-0.00878934,-0.00840601,-0.00801647,-0.00762136,-0.00722206,-0.00681864,-0.00641472,-0.00601076,-0.00560651,-0.00520486,-0.00480783,-0.00441637,-0.00403172,-0.00365568,-0.00329112,-0.00293494,-0.00259298,-0.00226815,-0.00195656,-0.00166413,-0.00139249,-0.0011435,-0.000920553,-0.000717275,-0.000539921,-0.000389083,-0.000265083,-0.000170461,-9.53841e-05,-4.37913e-05,-1.26795e-05,7.50866e-07,0
0,-6.83552e-06,-3.11631e-05,-7.63627e-05,-0.00014524,-0.000240429,-0.000360804,-0.000507104,-0.000681132,-0.000881432,-0.00110721,-0.0013572,-0.00163144,-0.00192426,-0.00223657,-0.00256799,-0.00291529,-0.00327716,-0.00365187,-0.00403951,-0.00443249,-0.00483491,-0.00524441,-0.0056589,-0.00607732,-0.00649794,-0.00691981,-0.00734254,-0.00776608,-0.00818286,-0.00859991,-0.00901376,-0.00942294,-0.00982691,-0.0102259,-0.0106199,-0.0110029,-0.0113808,-0.0117505,-0.0121122,-0.0124656,-0.0128074,-0.0131407,-0.0134633,-0.0137759,-0.0140766,-0.0143668,-0.0146447,-0.014912,-0.0151662,-0.0154066,-0.0156353,-0.0158498,-0.0160513,-0.0162372,-0.0164139,-0.016574,-0.0167176,-0.0168476,-0.0169618,-0.0170609,-0.0171423,-0.0172139,-0.0172674,-0.017303,-0.017322,-0.0173216,-0.0173121,-0.0172837,-0.0172366,-0.0171718,-0.0170864,-0.0169917,-0.0168783,-0.0167465,-0.0165969,-0.0164302,-0.016245,-0.01604,-0.0158243,-0.0155914,-0.015342,-0.0150744,-0.0147878,-0.0144901,-0.0141768,-0.0138491,-0.0135052,-0.0131449,-0.0127739,-0.0123902,-0.0119954,-0.0115879,-0.0111687,-0.0107393,-0.0103018,-0.00985763,-0.00940588,-0.0089486,-0.00848713,-0.00802154,-0.00755315,-0.00708436,-0.00661803,-0.0061519,-0.00569059,-0.00523659,-0.00478993,-0.00435336,-0.00392858,-0.00351845,-0.00312053,-0.00273978,-0.00238019,-0.00203826,-0.00171874,-0.00142482,-0.00115717,-0.00091955,-0.00070618,-0.000521357,-0.000367069,-0.000242197,-0.000149038,-7.75771e-05,-3.09425e-05,-6.22211e-06,0
0,-1.07922e-05,-4.51994e-05,-0.000105628,-0.000193721,-0.000310758,-0.000458491,-0.000634131,-0.000838782,-0.0010729,-0.00133475,-0.00162284,-0.00193603,-0.0022737,-0.00262971,-0.00300606,-0.00340084,-0.00381147,-0.00423585,-0.00467299,-0.00512208,-0.00557574,-0.00603829,-0.00650717,-0.00698015,-0.00745552,-0.00793267,-0.00840946,-0.00888615,-0.00936223,-0.00983077,-0.0102983,-0.0107608,-0.0112176,-0.0116676,-0.0121113,-0.012548,-0.0129728,-0.0133907,-0.0137988,-0.014197,-0.0145853,-0.0149609,-0.0153254,-0.0156778,-0.0160178,-0.0163449,-0.0166587,-0.0169588,-0.0172467,-0.0175185,-0.0177755,-0.0180176,-0.0182446,-0.0184552,-0.0186492,-0.0188318,-0.0189944,-0.0191398,-0.019268,-0.0193797,-0.0194728,-0.0195455,-0.0196077,-0.0196481,-0.0196696,-0.0196715,-0.0196513,-0.01962,-0.0195674,-0.0194946,-0.0194012,-0.0192854,-0.0191572,-0.0190085,-0.0188394,-0.0186504,-0.0184421,-0.0182136,-0.0179636,-0.0176997,-0.0174173,-0.0171162,-0.016796,-0.0164559,-0.0161011,-0.0157305,-0.0153434,-0.0149397,-0.0145195,-0.0140856,-0.0136393,-0.0131803,-0.0127093,-0.0122254,-0.0117314,-0.0112299,-0.0107208,-0.0102052,-0.00968531,-0.00916135,-0.00863547,-0.00810694,-0.0075805,-0.00705747,-0.00653682,-0.00602373,-0.00551969,-0.00502594,-0.00454551,-0.00408006,-0.00363334,-0.00320139,-0.00279074,-0.00240569,-0.00204115,-0.00170365,-0.00139501,-0.00111612,-0.000871554,-0.000653788,-0.000468699,-0.000315975,-0.000195602,-0.00010923,-4.67525e-05,-1.09487e-05,0
0,-1.43393e-05,-5.87891e-05,-0.000134522,-0.000242083,-0.000382209,-0.000554866,-0.000761175,-0.000997266,-0.0012641,-0.00156133,-0.0018869,-0.00223903,-0.00261614,-0.00301791,-0.00343726,-0.00387661,-0.00433363,-0.00480558,-0.00529065,-0.00578718,-0.00629521,-0.00680606,-0.00732547,-0.00784977,-0.00837672,-0.00890515,-0.00943351,-0.00996103,-0.0104865,-0.0110102,-0.0115253,-0.0120374,-0.0125434,-0.0130419,-0.0135324,-0.0140148,-0.0144885,-0.0149494,-0.0154012,-0.0158416,-0.0162705,-0.0166875,-0.0170906,-0.0174806,-0.0178564,-0.0182185,-0.0185652,-0.0188974,-0.0192132,-0.0195155,-0.0197999,-0.0200667,-0.0203174,-0.0205501,-0.0207655,-0.0209608,-0.0211432,-0.0213043,-0.021445,-0.0215674,-0.0216702,-0.0217521,-0.021812,-0.0218587,-0.0218826,-0.0218848,-0.0218646,-0.021821,-0.0217634,-0.0216828,-0.0215799,-0.0214545,-0.0213046,-0.0211397,-0.0209524,-0.0207433,-0.020512,-0.0202599,-0.0199858,-0.019688,-0.0193745,-0.0190408,-0.0186874,-0.0183138,-0.0179186,-0.0175075,-0.0170785,-0.0166326,-0.01617,-0.0156895,-0.0151951,-0.0146868,-0.0141664,-0.0136331,-0.0130879,-0.012533,-0.0119697,-0.0114,-0.0108253,-0.0102465,-0.00966562,-0.00908406,-0.0085017,-0.00792253,-0.00734944,-0.00678141,-0.00622288,-0.00567602,-0.00514346,-0.00462651,-0.0041285,-0.00365235,-0.00319424,-0.0027617,-0.00235806,-0.00197893,-0.00163021,-0.00131358,-0.00103082,-0.00078561,-0.00057002,-0.000390065,-0.000244985,-0.000134867,-6.16693e-05,-1.53453e-05,0
0,-1.72342e-05,-7.15534e-05,-0.000162217,-0.000289256,-0.000452138,-0.000650713,-0.000884337,-0.00115342,-0.00145324,-0.00178463,-0.00214684,-0.00253711,-0.00295376,-0.00339463,-0.00385958,-0.00434092,-0.00484159,-0.0053588,-0.0058898,-0.0064327,-0.00698594,-0.007549,-0.00811394,-0.00868617,-0.00926159,-0.00983835,-0.0104151,-0.0109907,-0.0115634,-0.0121332,-0.0126994,-0.0132556,-0.0138074,-0.0143512,-0.0148865,-0.015412,-0.0159275,-0.0164326,-0.0169241,-0.0174043,-0.0178714,-0.0183255,-0.0187652,-0.0191907,-0.0196003,-0.0199942,-0.0203722,-0.0207337,-0.0210784,-0.0214039,-0.0217158,-0.0220068,-0.0222788,-0.0225319,-0.0227661,-0.0229803,-0.0231717,-0.0233496,-0.0235033,-0.0236355,-0.0237467,-0.0238354,-0.0239026,-0.0239445,-0.023972,-0.0239746,-0.0239527,-0.0239076,-0.0238359,-0.0237485,-0.0236362,-0.0235001,-0.0233396,-0.0231523,-0.0229477,-0.0227192,-0.0224672,-0.0221917,-0.0218935,-0.0215717,-0.0212253,-0.0208601,-0.0204742,-0.0200678,-0.0196395,-0.0191894,-0.0187209,-0.0182344,-0.017731,-0.0172095,-0.0166707,-0.0161162,-0.0155487,-0.0149681,-0.0143754,-0.0137724,-0.0131586,-0.0125376,-0.0119119,-0.0112813,-0.010649,-0.0100153,-0.00938387,-0.00875254,-0.00812668,-0.00751036,-0.00690071,-0.00630336,-0.00572129,-0.0051559,-0.0046102,-0.00408604,-0.0035876,-0.00311121,-0.00266341,-0.002249,-0.00186158,-0.00150837,-0.00119077,-0.000909831,-0.000670038,-0.000462943,-0.000293879,-0.000163589,-7.1219e-05,-2.01463e-05,0
0,-2.15126e-05,-8.47842e-05,-0.000190052,-0.000335754,-0.000521084,-0.000745022,-0.0010064,-0.00130452,-0.00163883,-0.00200401,-0.00240084,-0.00282822,-0.00328279,-0.00376277,-0.00426658,-0.00479281,-0.00533442,-0.005894,-0.00646894,-0.00705587,-0.00765339,-0.0082597,-0.00887417,-0.00948957,-0.0101102,-0.0107328,-0.0113549,-0.0119756,-0.0125934,-0.0132069,-0.0138161,-0.0144194,-0.0150122,-0.0155984,-0.0161752,-0.0167418,-0.0172967,-0.0178402,-0.0183714,-0.0188881,-0.0193915,-0.0198801,-0.0203536,-0.020811,-0.0212529,-0.0216774,-0.0220835,-0.0224729,-0.0228436,-0.0231948,-0.0235262,-0.0238412,-0.0241347,-0.0244058,-0.0246576,-0.0248877,-0.0250951,-0.0252794,-0.0254466,-0.0255896,-0.025708,-0.0258028,-0.0258748,-0.0259215,-0.0259428,-0.0259463,-0.025923,-0.0258744,-0.0257997,-0.0256977,-0.0255766,-0.0254299,-0.0252572,-0.0250583,-0.0248314,-0.0245843,-0.0243126,-0.0240158,-0.0236941,-0.023348,-0.0229771,-0.0225804,-0.0221632,-0.0217245,-0.0212637,-0.0207811,-0.0202754,-0.0197506,-0.0192077,-0.0186464,-0.0180679,-0.0174714,-0.0168598,-0.016234,-0.0155962,-0.0149476,-0.0142886,-0.0136199,-0.0129457,-0.012267,-0.0115858,-0.0109035,-0.010223,-0.00954584,-0.00887141,-0.00820555,-0.0075512,-0.00690633,-0.00627716,-0.00566595,-0.00507493,-0.00450657,-0.00396319,-0.00344949,-0.00296136,-0.00250527,-0.00208588,-0.0016971,-0.00134578,-0.00103325,-0.000761438,-0.000532968,-0.000341165,-0.00019125,-8.34066e-05,-1.88192e-05,0
0,-2.60656e-05,-9.89069e-05,-0.000217362,-0.000381062,-0.000587955,-0.000836447,-0.00112502,-0.00145218,-0.0018165,-0.00221701,-0.0026477,-0.00310987,-0.00360145,-0.00411941,-0.00466152,-0.00522601,-0.0058114,-0.00641028,-0.00702604,-0.00765517,-0.00829507,-0.00894335,-0.0095993,-0.0102615,-0.0109227,-0.0115879,-0.0122529,-0.0129163,-0.013576,-0.0142319,-0.0148817,-0.0155251,-0.0161613,-0.0167855,-0.0174015,-0.0180065,-0.0185993,-0.0191792,-0.0197458,-0.0202983,-0.0208356,-0.0213573,-0.0218622,-0.0223506,-0.0228209,-0.023275,-0.023709,-0.0241236,-0.0245191,-0.0248941,-0.0252483,-0.0255799,-0.025895,-0.0261852,-0.0264528,-0.0266978,-0.0269193,-0.027117,-0.0272886,-0.0274429,-0.0275701,-0.0276706,-0.0277465,-0.0277967,-0.027821,-0.0278173,-0.027793,-0.0277416,-0.0276625,-0.027556,-0.02742,-0.027263,-0.0270789,-0.0268671,-0.0266277,-0.026359,-0.026068,-0.0257509,-0.0254077,-0.0250379,-0.0246429,-0.0242217,-0.0237741,-0.0233047,-0.0228122,-0.0222976,-0.0217597,-0.0211991,-0.020619,-0.0200194,-0.0194024,-0.0187671,-0.0181155,-0.0174474,-0.0167662,-0.0160744,-0.0153715,-0.0146598,-0.0139404,-0.0132154,-0.0124886,-0.0117601,-0.0110333,-0.0103094,-0.00959198,-0.00888034,-0.00817888,-0.00749234,-0.00681884,-0.00616306,-0.00552927,-0.00491837,-0.0043331,-0.00377738,-0.00325422,-0.00276051,-0.00230211,-0.00188386,-0.00150006,-0.00115713,-0.00085663,-0.000599762,-0.000390622,-0.00022191,-9.9684e-05,-2.50387e-05,0
0,-2.82591e-05,-0.000111105,-0.000243118,-0.000423449,-0.000651016,-0.000923273,-0.00123819,-0.00159379,-0.00198818,-0.00241927,-0.00288615,-0.00338184,-0.00390845,-0.00446284,-0.00504238,-0.00564436,-0.00626696,-0.00690878,-0.00756221,-0.00823102,-0.00891114,-0.00960011,-0.0102957,-0.0109972,-0.011703,-0.0124062,-0.0131114,-0.0138149,-0.0145147,-0.0152095,-0.0158987,-0.0165798,-0.0172531,-0.017917,-0.0185684,-0.0192093,-0.0198371,-0.0204518,-0.0210514,-0.0216363,-0.0222051,-0.0227582,-0.0232931,-0.0238098,-0.0243079,-0.0247863,-0.0252474,-0.0256867,-0.0261047,-0.0265012,-0.0268763,-0.0272282,-0.0275562,-0.0278657,-0.0281493,-0.0284081,-0.0286416,-0.0288511,-0.029034,-0.02919,-0.0293263,-0.029433,-0.0295131,-0.0295651,-0.0295911,-0.0295887,-0.0295557,-0.0295017,-0.0294178,-0.0293059,-0.0291639,-0.0289918,-0.0287961,-0.0285715,-0.0283188,-0.0280365,-0.027724,-0.0273872,-0.0270231,-0.0266318,-0.0262131,-0.0257678,-0.0252958,-0.0247969,-0.0242741,-0.0237282,-0.023159,-0.0225669,-0.0219528,-0.0213172,-0.020663,-0.0199905,-0.0193013,-0.0185951,-0.0178736,-0.0171405,-0.0163961,-0.0156425,-0.0148826,-0.0141148,-0.0133443,-0.0125724,-0.0118021,-0.0110344,-0.0102726,-0.00952102,-0.00877636,-0.00804546,-0.00733317,-0.00663586,-0.00596066,-0.00530941,-0.00468502,-0.00409006,-0.00352751,-0.00300216,-0.00250849,-0.00205441,-0.00164409,-0.0012719,-0.000944388,-0.000662727,-0.000429304,-0.000247949,-0.000112418,-2.89537e-05,0
0,-3.11564e-05,-0.000120974,-0.000267263,-0.000464165,-0.00071096,-0.00100602,-0.00134615,-0.00172922,-0.0021527,-0.00261445,-0.00311194,-0.00364418,-0.00420371,-0.0047928,-0.00540829,-0.0060468,-0.00670606,-0.0073838,-0.00807902,-0.00878359,-0.00950195,-0.0102294,-0.0109637,-0.0117032,-0.0124459,-0.0131913,-0.0139323,-0.0146736,-0.0154109,-0.0161431,-0.0168686,-0.0175862,-0.0182947,-0.018993,-0.0196804,-0.0203544,-0.0210154,-0.0216619,-0.0222934,-0.0229086,-0.0235072,-0.024088,-0.0246519,-0.0251956,-0.0257193,-0.0262231,-0.0267048,-0.027169,-0.027609,-0.0280254,-0.0284196,-0.0287896,-0.0291359,-0.0294552,-0.0297561,-0.0300285,-0.0302736,-0.0304933,-0.0306856,-0.0308513,-0.0309873,-0.0311011,-0.0311856,-0.0312401,-0.0312667,-0.0312643,-0.0312315,-0.0311677,-0.0310795,-0.0309616,-0.0308131,-0.0306343,-0.0304232,-0.0301861,-0.0299196,-0.0296232,-0.0292968,-0.028939,-0.0285547,-0.0281422,-0.0277018,-0.027233,-0.0267369,-0.0262136,-0.0256625,-0.0250869,-0.0244872,-0.0238643,-0.0232189,-0.0225506,-0.0218617,-0.0211533,-0.0204281,-0.0196854,-0.0189277,-0.0181559,-0.0173719,-0.0165785,-0.0157782,-0.0149721,-0.0141606,-0.0133473,-0.0125357,-0.0117267,-0.0109234,-0.0101294,-0.00934737,-0.00857544,-0.00782107,-0.00708786,-0.00637325,-0.00568329,-0.00502097,-0.00438924,-0.0037904,-0.00322768,-0.00270558,-0.00221897,-0.00177582,-0.00138036,-0.00102721,-0.000722584,-0.000468201,-0.000267015,-0.00012346,-3.19797e-05,0
0,-3.38326e-05,-0.000131121,-0.000288246,-0.000502776,-0.000768436,-0.00108458,-0.00144902,-0.0018583,-0.00231004,-0.00280122,-0.00332949,-0.00389231,-0.00448806,-0.00510943,-0.00575887,-0.00643262,-0.00712732,-0.00784063,-0.00857041,-0.00931534,-0.010068,-0.0108319,-0.0116031,-0.0123791,-0.013158,-0.0139384,-0.0147188,-0.015494,-0.0162668,-0.0170342,-0.0177946,-0.0185463,-0.0192886,-0.0200195,-0.020739,-0.0214458,-0.0221377,-0.0228149,-0.0234756,-0.02412,-0.0247463,-0.0253546,-0.025943,-0.0265136,-0.0270621,-0.0275888,-0.0280939,-0.0285754,-0.0290382,-0.0294746,-0.0298862,-0.0302733,-0.0306355,-0.0309713,-0.0312797,-0.0315669,-0.0318242,-0.0320534,-0.0322542,-0.0324276,-0.0325717,-0.0326839,-0.0327734,-0.032831,-0.0328586,-0.0328556,-0.0328214,-0.0327567,-0.0326584,-0.0325348,-0.0323792,-0.0321928,-0.0319742,-0.0317216,-0.0314419,-0.0311313,-0.0307902,-0.0304178,-0.0300129,-0.0295801,-0.0291183,-0.0286277,-0.0281083,-0.027561,-0.0269856,-0.0263827,-0.0257538,-0.0251009,-0.0244252,-0.0237262,-0.0230058,-0.0222637,-0.0215036,-0.0207259,-0.0199324,-0.0191261,-0.0183049,-0.0174733,-0.0166348,-0.0157894,-0.0149418,-0.0140892,-0.013238,-0.0123896,-0.0115466,-0.0107132,-0.0098905,-0.00908327,-0.00829019,-0.00751665,-0.0067686,-0.00604139,-0.00534254,-0.00467567,-0.00404205,-0.0034459,-0.00288869,-0.00237613,-0.00190379,-0.00147832,-0.00110539,-0.000778905,-0.000505492,-0.000288426,-0.000129488,-3.53724e-05,0
0,-3.63907e-05,-0.000140803,-0.00030895,-0.000537205,-0.00082296,-0.00115952,-0.00154646,-0.00198112,-0.00245975,-0.00297956,-0.00353755,-0.0041308,-0.004757,-0.00541406,-0.00609494,-0.00680191,-0.0075309,-0.0082786,-0.0090427,-0.00982112,-0.0106122,-0.011409,-0.0122148,-0.013026,-0.0138396,-0.0146541,-0.015468,-0.0162799,-0.0170848,-0.0178854,-0.0186788,-0.019463,-0.020237,-0.0209995,-0.0217494,-0.0224861,-0.0232076,-0.0239138,-0.0246027,-0.0252739,-0.0259269,-0.0265607,-0.0271745,-0.0277665,-0.0283397,-0.0288891,-0.0294149,-0.0299176,-0.0303952,-0.0308522,-0.0312819,-0.0316844,-0.0320616,-0.0324115,-0.0327341,-0.0330274,-0.0332972,-0.0335369,-0.0337459,-0.033926,-0.0340764,-0.034195,-0.0342819,-0.0343426,-0.034372,-0.034369,-0.034333,-0.034266,-0.0341654,-0.0340315,-0.0338688,-0.0336746,-0.0334477,-0.0331867,-0.0328918,-0.032567,-0.0322112,-0.0318238,-0.0314037,-0.0309509,-0.0304685,-0.0299566,-0.0294154,-0.0288448,-0.0282455,-0.0276183,-0.0269629,-0.0262816,-0.0255764,-0.0248477,-0.024097,-0.0233244,-0.0225314,-0.0217199,-0.0208924,-0.020051,-0.0191966,-0.0183292,-0.0174539,-0.0165717,-0.015686,-0.0147987,-0.01391,-0.0130234,-0.012143,-0.0112717,-0.0104112,-0.00956504,-0.00873844,-0.007928,-0.00714165,-0.00638298,-0.00564923,-0.00494793,-0.00428172,-0.00365327,-0.00306503,-0.00252037,-0.00202488,-0.00157342,-0.00117383,-0.000831156,-0.000540035,-0.000308014,-0.000138035,-3.34145e-05,0
0,-3.87565e-05,-0.000149804,-0.000328474,-0.000570559,-0.000872319,-0.001231,-0.00163944,-0.00209759,-0.00260218,-0.00314927,-0.00373577,-0.00435876,-0.00501506,-0.00570215,-0.00641816,-0.00715568,-0.00791707,-0.0086979,-0.00949521,-0.0103064,-0.0111298,-0.0119633,-0.0128005,-0.0136449,-0.0144917,-0.0153393,-0.0161852,-0.0170287,-0.0178678,-0.0186989,-0.0195235,-0.0203383,-0.021143,-0.021935,-0.0227143,-0.0234792,-0.0242287,-0.0249617,-0.025678,-0.0263755,-0.0270531,-0.0277115,-0.0283489,-0.0289643,-0.0295566,-0.030129,-0.0306757,-0.0311976,-0.0316946,-0.0321645,-0.0326129,-0.033032,-0.0334232,-0.0337863,-0.034122,-0.0344281,-0.0347026,-0.0349534,-0.0351714,-0.0353587,-0.0355147,-0.0356387,-0.0357309,-0.0357886,-0.0358197,-0.0358175,-0.0357808,-0.0357113,-0.0356078,-0.0354709,-0.035298,-0.0350959,-0.0348604,-0.0345906,-0.0342869,-0.0339473,-0.0335771,-0.0331745,-0.0327391,-0.0322709,-0.0317691,-0.0312366,-0.030674,-0.0300817,-0.0294593,-0.0288084,-0.028129,-0.0274219,-0.0266888,-0.025931,-0.0251509,-0.0243484,-0.023526,-0.0226824,-0.021822,-0.0209472,-0.0200584,-0.0191588,-0.0182486,-0.0173307,-0.0164089,-0.0154847,-0.0145625,-0.0136398,-0.0127225,-0.0118148,-0.0109178,-0.010035,-0.00917099,-0.00832866,-0.00750699,-0.00671161,-0.005948,-0.00521392,-0.00451524,-0.00385616,-0.00323854,-0.00266478,-0.00214024,-0.00166846,-0.00124615,-0.000880422,-0.00057651,-0.000330622,-0.000150045,-3.8468e-05,0
0,-4.11503e-05,-0.000158229,-0.000346801,-0.000602126,-0.000919893,-0.00129622,-0.0017282,-0.00220843,-0.00273724,-0.00331056,-0.00392452,-0.00457588,-0.00526156,-0.00597832,-0.00672374,-0.00749558,-0.00828653,-0.00909898,-0.00992831,-0.0107717,-0.0116267,-0.0124912,-0.0133635,-0.0142378,-0.0151164,-0.0159954,-0.0168727,-0.0177467,-0.0186158,-0.0194786,-0.0203322,-0.0211766,-0.0220097,-0.0228303,-0.0236371,-0.0244294,-0.0252052,-0.0259643,-0.0267046,-0.0274278,-0.0281296,-0.0288106,-0.0294704,-0.0301076,-0.0307214,-0.0313102,-0.0318783,-0.032419,-0.0329334,-0.033421,-0.0338801,-0.0343161,-0.0347219,-0.0350977,-0.0354447,-0.0357622,-0.0360481,-0.0363019,-0.0365292,-0.0367241,-0.0368859,-0.0370142,-0.0371106,-0.0371722,-0.0371996,-0.0371976,-0.0371602,-0.0370891,-0.0369822,-0.0368417,-0.0366648,-0.0364524,-0.0362081,-0.0359286,-0.0356154,-0.0352662,-0.0348816,-0.0344642,-0.034013,-0.033529,-0.0330111,-0.0324598,-0.0318768,-0.0312628,-0.0306187,-0.0299446,-0.0292415,-0.0285103,-0.0277522,-0.026967,-0.0261583,-0.0253268,-0.0244746,-0.0236024,-0.0227106,-0.0218037,-0.0208821,-0.0199488,-0.0190076,-0.0180558,-0.0170996,-0.0161403,-0.015182,-0.014227,-0.0132746,-0.0123318,-0.0113998,-0.0104823,-0.00958319,-0.00870477,-0.00785298,-0.00702405,-0.00622558,-0.00546392,-0.0047344,-0.00404579,-0.00339944,-0.00279931,-0.00224859,-0.00175061,-0.00131164,-0.000926532,-0.000603413,-0.000349387,-0.00015887,-4.09412e-05,0
0,-4.22282e-05,-0.00016523,-0.000363172,-0.000631014,-0.000964061,-0.00135806,-0.00180899,-0.00231393,-0.00286524,-0.0034634,-0.00410389,-0.00478272,-0.00549667,-0.00624245,-0.007017,-0.00781772,-0.00864218,-0.0094833,-0.0103434,-0.0112178,-0.0121037,-0.0129987,-0.0139007,-0.0148083,-0.0157158,-0.0166251,-0.0175324,-0.0184361,-0.019334,-0.0202252,-0.0211083,-0.0219803,-0.0228411,-0.0236884,-0.0245219,-0.0253399,-0.0261412,-0.0269248,-0.0276895,-0.0284343,-0.0291604,-0.0298637,-0.0305445,-0.0312022,-0.031836,-0.0324448,-0.0330271,-0.0335876,-0.0341193,-0.0346228,-0.0350981,-0.035543,-0.0359641,-0.0363531,-0.0367114,-0.037039,-0.0373348,-0.0375988,-0.0378282,-0.0380308,-0.0381989,-0.038332,-0.0384317,-0.0384964,-0.0385269,-0.0385207,-0.0384825,-0.0384097,-0.0383003,-0.0381556,-0.0379743,-0.0377574,-0.0375028,-0.0372139,-0.0368905,-0.0365309,-0.036136,-0.0357045,-0.0352381,-0.0347381,-0.034204,-0.0336363,-0.0330345,-0.0324,-0.0317344,-0.0310384,-0.0303123,-0.0295574,-0.0287749,-0.0279653,-0.0271295,-0.0262698,-0.0253889,-0.024487,-0.0235672,-0.0226294,-0.0216763,-0.0207109,-0.0197364,-0.0187543,-0.017765,-0.0167718,-0.0157796,-0.0147892,-0.0138059,-0.0128291,-0.011863,-0.0109117,-0.00997912,-0.009067,-0.00818053,-0.00732305,-0.00649271,-0.00569799,-0.00494303,-0.00422561,-0.00355224,-0.00292608,-0.00235143,-0.00183063,-0.00136835,-0.000969847,-0.000631307,-0.000361548,-0.000166537,-4.32873e-05,0
0,-4.3658e-05,-0.000171791,-0.00037874,-0.000658467,-0.00100624,-0.00141724,-0.00188716,-0.00241202,-0.0029889,-0.0036098,-0.00427539,-0.00498079,-0.00572198,-0.00649565,-0.00729873,-0.00812797,-0.00898065,-0.00985431,-0.0107422,-0.0116463,-0.0125621,-0.0134869,-0.0144181,-0.0153544,-0.0162933,-0.0172303,-0.0181663,-0.0190984,-0.0200246,-0.0209431,-0.0218532,-0.0227524,-0.0236397,-0.024513,-0.0253715,-0.0262147,-0.02704,-0.0278476,-0.0286352,-0.029403,-0.0301484,-0.0308747,-0.0315764,-0.0322534,-0.0329064,-0.0335337,-0.0341347,-0.0347076,-0.0352577,-0.0357772,-0.0362671,-0.0367272,-0.0371558,-0.0375586,-0.0379289,-0.0382666,-0.0385716,-0.0388445,-0.039083,-0.0392869,-0.0394614,-0.0395998,-0.0397034,-0.0397706,-0.0398035,-0.0397996,-0.0397569,-0.0396823,-0.0395704,-0.0394226,-0.0392365,-0.0390145,-0.0387548,-0.0384557,-0.0381223,-0.0377521,-0.0373464,-0.0369038,-0.0364232,-0.035908,-0.0353576,-0.0347733,-0.0341546,-0.0335016,-0.0328154,-0.0320977,-0.0313496,-0.0305717,-0.0297653,-0.0289311,-0.0280711,-0.0271846,-0.0262757,-0.0253453,-0.0243958,-0.0234304,-0.0224469,-0.0214503,-0.0204439,-0.0194287,-0.0184097,-0.0173841,-0.0163588,-0.0153351,-0.014317,-0.0133101,-0.0123109,-0.0113263,-0.0103613,-0.0094169,-0.00849814,-0.00760709,-0.00674988,-0.00592492,-0.00513865,-0.0043977,-0.00369796,-0.00304695,-0.00244932,-0.0019073,-0.00142534,-0.00100684,-0.000658248,-0.000376332,-0.000169701,-4.59348e-05,0
0,-4.76689e-05,-0.000180384,-0.000395003,-0.000686074,-0.00104756,-0.00147474,-0.00196286,-0.00250757,-0.00310497,-0.00375181,-0.00444008,-0.00517052,-0.00593804,-0.0067386,-0.00756906,-0.00842623,-0.0093067,-0.0102078,-0.0111271,-0.0120582,-0.0130027,-0.0139562,-0.0149162,-0.0158803,-0.0168468,-0.0178136,-0.0187764,-0.019736,-0.0206892,-0.0216347,-0.0225707,-0.0234957,-0.0244081,-0.0253069,-0.0261901,-0.0270567,-0.0279058,-0.028736,-0.0295461,-0.0303354,-0.0311025,-0.0318463,-0.0325697,-0.0332664,-0.0339373,-0.0345823,-0.0352007,-0.035791,-0.036352,-0.0368885,-0.0373932,-0.0378668,-0.0383094,-0.0387187,-0.0391013,-0.03945,-0.0397643,-0.0400452,-0.0402916,-0.0405037,-0.0406791,-0.0408226,-0.0409306,-0.041001,-0.0410354,-0.0410331,-0.040992,-0.0409129,-0.0407982,-0.0406472,-0.0404573,-0.04023,-0.0399646,-0.0396596,-0.0393162,-0.0389354,-0.0385186,-0.0380647,-0.0375725,-0.0370432,-0.036477,-0.0358763,-0.0352407,-0.03457,-0.0338654,-0.0331271,-0.0323572,-0.0315572,-0.0307274,-0.0298692,-0.0289843,-0.0280737,-0.027138,-0.0261798,-0.0252019,-0.0242067,-0.0231957,-0.0221689,-0.0211316,-0.020085,-0.0190331,-0.0179783,-0.0169207,-0.0158645,-0.0148136,-0.0137725,-0.0127441,-0.0117274,-0.0107301,-0.00975425,-0.00880436,-0.00788241,-0.00699301,-0.00614275,-0.00532821,-0.00455791,-0.00383641,-0.00316179,-0.00254178,-0.00197942,-0.00147961,-0.00104411,-0.00067883,-0.000390659,-0.000175428,-4.30964e-05,0