-0,-0,-0,-0,-0,-0,-0,-0,-0,-0,-0,-0,-0,-0,-0,-0,-0,-0,-0,-0,-0,-0,-0,-0,-0,-0,-0,-0,-0,-0,-0,-0,-0,-0,-0,-0,-0,-0,-0,-0,-0,-0,-0,-0,-0,-0,-0,-0,-0,-0,-0,-0,-0,-0,-0,-0,-0,-0,-0,-0,-0,-0,-0,-0,-0,-0,-0,-0,-0,-0,-0,-0,-0,-0,-0,-0,-0,-0,-0,-0,-0,-0,-0,-0,-0,-0,-0,-0,-0,-0,-0,-0,-0,-0,-0,-0,-0,-0,-0,-0,-0,-0,-0,-0,-0,-0,-0,-0,-0,-0,-0,-0,-0,-0,-0,-0,-0,-0,-0,-0,-0,-0,-0,-0,-0,-0,-0,-0
-0,-4.80758e-06,-5.62086e-06,-3.73341e-06,-6.60335e-07,3.22995e-06,7.78152e-06,1.08543e-05,1.39333e-05,1.79101e-05,2.1578e-05,2.45725e-05,2.78076e-05,3.12424e-05,3.16244e-05,3.36242e-05,3.60021e-05,3.78126e-05,3.8852e-05,4.02675e-05,4.07918e-05,4.21346e-05,4.39575e-05,4.06086e-05,4.2737e-05,4.32415e-05,4.33481e-05,4.29739e-05,4.35064e-05,4.46703e-05,3.92411e-05,4.19852e-05,4.1568e-05,4.1146e-05,4.24389e-05,3.633e-05,3.89163e-05,3.83256e-05,3.68442e-05,3.62411e-05,3.55334e-05,3.6241e-05,3.07545e-05,3.22212e-05,3.16852e-05,2.97698e-05,2.90868e-05,2.77287e-05,2.77167e-05,2.46972e-05,2.35687e-05,2.2995e-05,2.11605e-05,2.02748e-05,1.8284e-05,1.71789e-05,1.77696e-05,1.36791e-05,1.26009e-05,1.07666e-05,8.50766e-06,1.17935e-05,6.26449e-06,4.49268e-06,2.54034e-06,-8.9919e-07,4.74233e-06,-1.39586e-06,-4.06534e-06,-5.37177e-06,-7.15564e-06,-9.69394e-06,-1.40172e-05,-7.02111e-06,-1.26037e-05,-1.59549e-05,-1.8317e-05,-2.37319e-05,-1.70211e-05,-2.10805e-05,-2.43604e-05,-2.67184e-05,-3.23576e-05,-2.68383e-05,-2.94523e-05,-3.23725e-05,-3.45467e-05,-3.97723e-05,-3.60215e-05,-3.73152e-05,-3.95396e-05,-4.0836e-05,-4.26044e-05,-4.4167e-05,-4.78214e-05,-4.62501e-05,-4.61122e-05,-4.85143e-05,-4.80174e-05,-4.73529e-05,-4.76611e-05,-4.79173e-05,-4.82604e-05,-4.81043e-05,-4.88788e-05,-4.95064e-05,-4.74052e-05,-4.60211e-05,-4.66381e-05,-4.38688e-05,-4.1601e-05,-3.91504e-05,-3.63016e-05,-3.68045e-05,-3.31013e-05,-2.97862e-05,-2.5789e-05,-2.07713e-05,-2.09291e-05,-1.58006e-05,-1.1334e-05,-6.32241e-06,2.96119e-07,-7.62919e-07,3.54154e-06,5.55091e-06,4.95467e-06,-0
-0,-1.10871e-05,-1.26201e-05,-6.21338e-06,4.59254e-06,1.74927e-05,3.20433e-05,4.62044e-05,5.82003e-05,7.07859e-05,8.38333e-05,9.56998e-05,0.000106418,0.000117296,0.000125456,0.000130646,0.000137786,0.000144628,0.000150017,0.000154285,0.0001578,0.000161067,0.000165367,0.00016517,0.000163443,0.000166144,0.000167074,0.000166725,0.000166473,0.000167736,0.000163549,0.000159235,0.000160094,0.000158825,0.00015862,0.000152704,0.000147404,0.000147265,0.000144349,0.000140448,0.000137288,0.00013557,0.000128903,0.000123402,0.000121156,0.000117087,0.000112363,0.000107988,0.000104384,9.84649e-05,9.32978e-05,8.81496e-05,8.30705e-05,7.78612e-05,7.23851e-05,6.66128e-05,6.22663e-05,5.78907e-05,4.96738e-05,4.30872e-05,3.59838e-05,3.30331e-05,2.96014e-05,1.95452e-05,1.16609e-05,2.95724e-06,9.21832e-07,-1.34392e-06,-1.21987e-05,-2.06064e-05,-2.7295e-05,-3.48407e-05,-4.52326e-05,-4.70193e-05,-4.83467e-05,-5.85266e-05,-6.82237e-05,-8.00238e-05,-8.25696e-05,-8.33599e-05,-9.21357e-05,-0.000101353,-0.000113132,-0.000116643,-0.000117479,-0.000124306,-0.000132227,-0.000142975,-0.000147155,-0.000148284,-0.000153056,-0.000158519,-0.000163839,-0.000169093,-0.000176339,-0.000179998,-0.000181016,-0.000184199,-0.00018621,-0.000186574,-0.000186154,-0.00018616,-0.000186259,-0.000185746,-0.000185647,-0.000185328,-0.000183239,-0.000178411,-0.000174486,-0.000170162,-0.000162239,-0.000153615,-0.000143799,-0.000135733,-0.000128252,-0.00011613,-0.000102842,-8.73531e-05,-7.48882e-05,-6.39759e-05,-4.81288e-05,-3.16884e-05,-1.36011e-05,-1.60731e-06,4.93385e-06,1.20124e-05,1.21054e-05,-0
-0,-1.53702e-05,-1.45187e-05,-1.07813e-06,2.1146e-05,4.78254e-05,7.69712e-05,0.000106535,0.000134351,0.000159837,0.000185856,0.000210873,0.000233818,0.000255432,0.000274174,0.000289456,0.000301653,0.000315818,0.00032764,0.000337412,0.000345048,0.000352051,0.000358693,0.000361434,0.000362858,0.000361568,0.000365062,0.00036487,0.000363953,0.00036412,0.000359029,0.000354534,0.000347721,0.000346901,0.000344219,0.00033522,0.000328762,0.000319751,0.000315427,0.000308136,0.00030006,0.000294437,0.00028283,0.000273964,0.000263931,0.000255579,0.000246273,0.000235874,0.000227351,0.000214861,0.000204295,0.000193942,0.000181176,0.00017014,0.000157961,0.00014619,0.000134095,0.000122129,0.000111682,9.47087e-05,8.04471e-05,6.93834e-05,5.63672e-05,4.61782e-05,2.72425e-05,9.91321e-06,-7.40048e-07,-1.40509e-05,-2.40936e-05,-4.34728e-05,-5.97679e-05,-7.54136e-05,-9.43072e-05,-0.000104869,-0.000117797,-0.000127702,-0.000147279,-0.000168759,-0.000180103,-0.000193456,-0.000203127,-0.000220364,-0.000241231,-0.000252936,-0.000265426,-0.000274452,-0.000288849,-0.000307385,-0.000318486,-0.000329461,-0.00033743,-0.000347441,-0.000358305,-0.000368611,-0.00038124,-0.000389185,-0.00039582,-0.00040195,-0.000405114,-0.000407732,-0.000409021,-0.000408398,-0.000407871,-0.000406351,-0.000404835,-0.000401688,-0.000396403,-0.000389654,-0.00037948,-0.000367501,-0.000354937,-0.000336881,-0.000317217,-0.000298064,-0.000276628,-0.000255716,-0.000228307,-0.000198046,-0.0001694,-0.000139581,-0.000112195,-7.90512e-05,-4.51197e-05,-1.7889e-05,4.20449e-06,1.3773e-05,1.70082e-05,-0
-0,-1.58991e-05,-7.68165e-06,1.67409e-05,5.31752e-05,9.74006e-05,0.000145344,0.000193724,0.000240772,0.000285693,0.000327474,0.000368631,0.000407638,0.000443787,0.000475151,0.000502744,0.000526755,0.000546686,0.00056727,0.000584619,0.000598242,0.000609532,0.0006203,0.000625808,0.000629746,0.000631495,0.00063041,0.000632508,0.000631312,0.000629739,0.000622546,0.000616163,0.000608283,0.000598523,0.000595113,0.000582592,0.000571071,0.000559111,0.000545023,0.000534423,0.000521445,0.000508994,0.000491284,0.000475767,0.000460198,0.000442903,0.000426627,0.000409695,0.000393115,0.000372849,0.00035369,0.000335298,0.000316166,0.000294403,0.000273679,0.000253196,0.000232033,0.00020978,0.00018868,0.000168131,0.000140688,0.000118599,9.53205e-05,7.27012e-05,5.11976e-05,2.00276e-05,-2.6315e-06,-2.70982e-05,-5.12357e-05,-7.25525e-05,-0.000102458,-0.000130972,-0.00016049,-0.000182164,-0.000207148,-0.000231873,-0.000254093,-0.000287727,-0.000311621,-0.000336402,-0.000360794,-0.000382422,-0.000413881,-0.000436739,-0.000459828,-0.0004825,-0.000502213,-0.000529395,-0.000549796,-0.000569544,-0.000588672,-0.000604311,-0.000621167,-0.000638419,-0.000657404,-0.000670821,-0.000682417,-0.000694688,-0.000701333,-0.000705237,-0.000708332,-0.000709557,-0.000707596,-0.000704156,-0.000700355,-0.000693761,-0.000683376,-0.000670641,-0.00065627,-0.000635038,-0.000611075,-0.000585275,-0.000552544,-0.000519003,-0.000481655,-0.000441762,-0.000400886,-0.000351304,-0.000302464,-0.000251538,-0.000200309,-0.000151568,-9.71851e-05,-5.1256e-05,-1.25313e-05,1.2984e-05,1.72384e-05,-0
-0,-1.05786e-05,9.06844e-06,4.98882e-05,0.000104106,0.000168218,0.00023843,0.000309782,0.000379176,0.000446239,0.000509867,0.000568628,0.000625619,0.000679244,0.000726772,0.000768187,0.000805385,0.000837835,0.000864637,0.000891265,0.000912446,0.000929988,0.000945093,0.000954333,0.000960464,0.000964421,0.000965611,0.000962319,0.000962694,0.000959895,0.000950202,0.000940534,0.000929259,0.000917168,0.000904037,0.000888697,0.000872113,0.000853956,0.000835183,0.000813615,0.000795047,0.000776134,0.000749685,0.000726247,0.000701897,0.000676958,0.000650788,0.000624075,0.000598795,0.000568104,0.000539357,0.000510018,0.000480241,0.000450749,0.000416667,0.000385132,0.000352149,0.000318776,0.000285198,0.000251147,0.000218163,0.000180213,0.000143328,0.00010724,7.04184e-05,3.49004e-05,-3.95584e-06,-4.35385e-05,-8.17234e-05,-0.000119878,-0.000154514,-0.000198497,-0.00024364,-0.000278983,-0.000317889,-0.000356883,-0.00039643,-0.000436326,-0.00047348,-0.000513049,-0.00055194,-0.000590805,-0.000629794,-0.000664152,-0.000700544,-0.000736071,-0.000771147,-0.000806624,-0.000836375,-0.000866902,-0.000896475,-0.000924303,-0.000948785,-0.000972833,-0.000999437,-0.00101941,-0.00103714,-0.00105484,-0.00106673,-0.00107451,-0.00107846,-0.00108011,-0.00107934,-0.00107342,-0.00106642,-0.00105533,-0.00103929,-0.0010194,-0.000995663,-0.000967212,-0.000930822,-0.000889741,-0.000845421,-0.000794737,-0.000738783,-0.000678218,-0.000613606,-0.000546218,-0.000473993,-0.000398404,-0.00032159,-0.000245247,-0.00017248,-0.00010403,-4.51029e-05,-2.62238e-06,1.60414e-05,-0
-0,1.55556e-06,3.75539e-05,9.85121e-05,0.000176123,0.000263283,0.00035796,0.000455185,0.000550134,0.000641538,0.000729197,0.000811349,0.000886895,0.000960106,0.00102601,0.00108388,0.0011352,0.0011812,0.00122059,0.00125302,0.00128401,0.00130867,0.00132925,0.00134264,0.00135187,0.00135725,0.00135971,0.00135806,0.0013522,0.00134996,0.00133785,0.00132401,0.00130849,0.00129175,0.00127471,0.00124886,0.00122782,0.00120284,0.00117598,0.00114802,0.00111787,0.00109106,0.00105589,0.00102214,0.000988126,0.000952364,0.000916129,0.000878713,0.000841234,0.000799087,0.000758134,0.000717001,0.000674025,0.00063134,0.000588257,0.000540798,0.000493799,0.000446808,0.000399489,0.000350402,0.000301618,0.000255616,0.000200376,0.000148428,9.60309e-05,4.22989e-05,-4.22893e-06,-6.18286e-05,-0.000117233,-0.000172152,-0.000226438,-0.000278339,-0.000340689,-0.000393677,-0.000448821,-0.000504422,-0.000560827,-0.000620112,-0.000666479,-0.000721767,-0.000777109,-0.000831963,-0.000890152,-0.000934976,-0.000984884,-0.00103503,-0.00108454,-0.0011369,-0.00117697,-0.00121847,-0.00125963,-0.0012987,-0.00133583,-0.00136912,-0.00140364,-0.00143085,-0.00145528,-0.00147934,-0.00149575,-0.00150795,-0.00151567,-0.00151744,-0.0015158,-0.00151006,-0.00149904,-0.00148225,-0.00145949,-0.00143133,-0.00139687,-0.00135578,-0.00130921,-0.00125207,-0.00118896,-0.00112302,-0.00104573,-0.000962388,-0.000872823,-0.000777531,-0.000683096,-0.000579731,-0.000475147,-0.000370189,-0.000266884,-0.000177926,-9.5236e-05,-3.15582e-05,4.55894e-06,-0
-0,2.05844e-05,7.85956e-05,0.000163965,0.000268172,0.000383782,0.000505105,0.000630111,0.000753504,0.000872321,0.000985634,0.00109286,0.00119268,0.00128438,0.0013705,0.0014469,0.00151455,0.00157442,0.00162698,0.00167188,0.00170785,0.00174191,0.00176908,0.00178725,0.00179951,0.00180691,0.00181021,0.00180859,0.00180301,0.00179373,0.0017811,0.00176356,0.00174241,0.00172008,0.00169701,0.00166577,0.00163299,0.00160148,0.00156665,0.00152881,0.00149019,0.00145117,0.00140565,0.00136148,0.00131516,0.00126786,0.0012189,0.00116921,0.0011203,0.00106274,0.00100843,0.000953206,0.000896231,0.000838201,0.000779311,0.000721858,0.00065582,0.00059245,0.000529434,0.00046442,0.000398615,0.000333246,0.000268459,0.000196257,0.000125019,5.3542e-05,-1.38455e-05,-8.14206e-05,-0.000157247,-0.000231843,-0.000304715,-0.000378523,-0.000451698,-0.000524241,-0.000599375,-0.000673163,-0.000748278,-0.000826471,-0.000894203,-0.000961694,-0.00103422,-0.00110777,-0.00118396,-0.00124852,-0.00131161,-0.00137707,-0.00144276,-0.00151081,-0.00156764,-0.0016216,-0.00167497,-0.00172656,-0.0017755,-0.00182144,-0.00186635,-0.0019011,-0.00193304,-0.00196387,-0.00198547,-0.00200156,-0.00201244,-0.00201729,-0.00201446,-0.00200589,-0.00199385,-0.00197064,-0.00193996,-0.00190263,-0.00185702,-0.00180212,-0.00173886,-0.00166841,-0.00158577,-0.00149626,-0.00140023,-0.00129166,-0.00117518,-0.00105148,-0.000924986,-0.000796597,-0.0006607,-0.000524407,-0.000390511,-0.00026865,-0.000163199,-7.39774e-05,-1.49011e-05,-0
-0,4.67549e-05,0.00013239,0.000247033,0.000381253,0.000528053,0.000681333,0.000835476,0.0009889,0.00113751,0.00127914,0.00141263,0.00153775,0.00165378,0.00175837,0.00185501,0.00194061,0.00201621,0.00208211,0.00213926,0.00218675,0.00222487,0.00226068,0.0022845,0.00230023,0.00230976,0.00231365,0.00231155,0.00230496,0.00229459,0.00227388,0.00225403,0.00222784,0.00219855,0.00216842,0.00212932,0.00208933,0.00204545,0.00200195,0.00195434,0.00190441,0.001855,0.001796,0.00173901,0.0016805,0.00161949,0.00155697,0.00149263,0.00142929,0.00135878,0.00128698,0.00121606,0.00114311,0.00106898,0.000992845,0.000917332,0.000838953,0.000754901,0.000673115,0.000590231,0.000506384,0.0004214,0.000335311,0.000251115,0.000157898,6.56071e-05,-2.24946e-05,-0.000113284,-0.000201163,-0.00029751,-0.000392619,-0.000487594,-0.000584657,-0.000670566,-0.000766647,-0.000862533,-0.000958112,-0.00105692,-0.00114503,-0.00123569,-0.00132336,-0.00141542,-0.00151148,-0.00159527,-0.00167975,-0.00176042,-0.00184227,-0.00192775,-0.00200091,-0.00207256,-0.0021398,-0.00220398,-0.00226584,-0.002324,-0.00238151,-0.00242641,-0.00246585,-0.00250397,-0.00253128,-0.00255184,-0.00256551,-0.00257185,-0.00257078,-0.00255952,-0.00254271,-0.002516,-0.00247663,-0.00242912,-0.00237105,-0.00230165,-0.00222138,-0.00213074,-0.00203155,-0.00191872,-0.00179532,-0.00166443,-0.00151897,-0.00136506,-0.00120655,-0.00104206,-0.000878002,-0.000708002,-0.000539981,-0.000384671,-0.000244085,-0.00012984,-4.21936e-05,-0
-0,7.93735e-05,0.000198778,0.000347258,0.000515859,0.000696565,0.000884072,0.00107251,0.00125643,0.00143639,0.00160843,0.00177055,0.00192192,0.00206326,0.00219162,0.0023056,0.00241093,0.00250339,0.002584,0.00265348,0.00271241,0.00276079,0.00279934,0.00283096,0.00285075,0.0028623,0.002867,0.00286446,0.00285595,0.00284292,0.00281992,0.00279072,0.00276051,0.00272458,0.00268601,0.0026387,0.00258912,0.0025361,0.00247936,0.00242097,0.00235953,0.0022971,0.00222571,0.00215461,0.00208096,0.0020057,0.00192771,0.00184815,0.00176825,0.00168079,0.00159513,0.00150439,0.00141373,0.0013216,0.00122742,0.00113263,0.00103351,0.0009359,0.000831262,0.000727513,0.000623863,0.000518016,0.000410233,0.000302787,0.000195614,7.96992e-05,-3.18792e-05,-0.000145264,-0.000258417,-0.000369986,-0.000488195,-0.000606872,-0.000726995,-0.000839047,-0.000951645,-0.00106958,-0.00118864,-0.00130988,-0.00142043,-0.00153358,-0.00164551,-0.00175499,-0.00187107,-0.00197543,-0.00208042,-0.0021834,-0.00228285,-0.00238576,-0.00247608,-0.00256464,-0.0026499,-0.0027293,-0.00280418,-0.00287515,-0.0029449,-0.00300114,-0.00305117,-0.0030969,-0.00312991,-0.0031551,-0.00317212,-0.00317969,-0.00317838,-0.00316742,-0.00314611,-0.00311175,-0.00306651,-0.00300802,-0.00293644,-0.00285163,-0.00275382,-0.00264256,-0.00252003,-0.00238691,-0.00223641,-0.00207443,-0.00190302,-0.00171684,-0.00152438,-0.00132456,-0.0011215,-0.000919953,-0.000715546,-0.000523847,-0.000346515,-0.000193499,-7.65704e-05,-0
-0,0.000118308,0.000277372,0.000464736,0.000671174,0.00088951,0.00111353,0.00133819,0.0015578,0.00176872,0.00197274,0.00216511,0.00234467,0.0025113,0.0026642,0.0028013,0.00292262,0.0030341,0.00313032,0.00321315,0.0032829,0.00334118,0.00338868,0.00342167,0.00344788,0.00346194,0.00346716,0.00346388,0.00345327,0.00343712,0.0034099,0.00337646,0.00333586,0.00329412,0.00324748,0.00319009,0.00313031,0.00306607,0.0029986,0.00292603,0.00285163,0.0027762,0.00268986,0.00260423,0.00251556,0.002423,0.00232891,0.00223209,0.00213545,0.00202903,0.00192441,0.00181887,0.00170611,0.00159413,0.0014801,0.00136573,0.0012446,0.0011242,0.00100467,0.000876116,0.000749789,0.00062133,0.000491196,0.000360183,0.000227325,9.56988e-05,-4.17665e-05,-0.000180244,-0.000317978,-0.000456579,-0.000592274,-0.000736003,-0.000881334,-0.00101845,-0.00115854,-0.00129556,-0.0014386,-0.00158444,-0.00171868,-0.00185573,-0.00199156,-0.00212694,-0.0022626,-0.0023876,-0.00251443,-0.00263881,-0.00276089,-0.00288275,-0.0029908,-0.00309752,-0.00320012,-0.00329723,-0.00338783,-0.00347214,-0.00355485,-0.00362207,-0.00368264,-0.00373878,-0.00377791,-0.00380809,-0.00382842,-0.00383786,-0.00383593,-0.00382231,-0.0037999,-0.00375818,-0.00370259,-0.00363612,-0.00355047,-0.00344911,-0.00333247,-0.0032006,-0.00305416,-0.00289354,-0.00271951,-0.00252664,-0.0023208,-0.00210569,-0.00187735,-0.0016406,-0.00139874,-0.00115489,-0.00091614,-0.000684025,-0.000466745,-0.000273282,-0.000113413,-0
-0,0.000164158,0.000367318,0.000598229,0.000846891,0.00110583,0.00136939,0.00163201,0.00188885,0.00213588,0.00237045,0.00259476,0.00280387,0.00299781,0.00317542,0.00333564,0.00347876,0.00360457,0.00371852,0.00381535,0.00389686,0.00396463,0.00402012,0.00406083,0.00408674,0.00410554,0.00411171,0.0041072,0.00409445,0.00407432,0.00404268,0.00400318,0.00395661,0.00390356,0.00384899,0.00378208,0.0037106,0.00363456,0.00355405,0.00346887,0.00337971,0.00328902,0.00318778,0.00308556,0.00298029,0.00287209,0.00275827,0.0026437,0.0025283,0.00240267,0.00227774,0.00215081,0.00202223,0.0018862,0.00175035,0.00161453,0.00147097,0.00132754,0.0011828,0.00103769,0.000885282,0.000731235,0.000577006,0.000421512,0.000263637,0.000104479,-5.16469e-05,-0.000217102,-0.000381715,-0.0005467,-0.00071137,-0.00087472,-0.00104631,-0.00121065,-0.00137749,-0.00154354,-0.00170747,-0.00187841,-0.00203889,-0.00220135,-0.00236249,-0.00252264,-0.00268498,-0.00283126,-0.00297993,-0.00312682,-0.00327113,-0.00341625,-0.00354382,-0.00366885,-0.00378972,-0.0039043,-0.00401229,-0.00411259,-0.00420852,-0.00428749,-0.00435869,-0.00442463,-0.0044728,-0.00450803,-0.00453202,-0.00454315,-0.00454123,-0.00452508,-0.00449769,-0.00445204,-0.00438673,-0.00430725,-0.00421048,-0.00409201,-0.00395605,-0.00380194,-0.00363177,-0.00344399,-0.00323824,-0.00301865,-0.00277849,-0.002525,-0.00226448,-0.00198842,-0.00170584,-0.00142024,-0.00113582,-0.000865565,-0.000604273,-0.00036593,-0.000159977,-0
-0,0.000217215,0.000468669,0.000746891,0.00104177,0.00134489,0.0016506,0.00195391,0.00224927,0.00253355,0.00280394,0.00305797,0.00329842,0.00352084,0.00372427,0.00390791,0.0040725,0.00421837,0.00434496,0.00445803,0.00455193,0.00462936,0.00469291,0.00473982,0.00477132,0.00478838,0.0047973,0.00479222,0.00477642,0.00475272,0.00471557,0.00466971,0.00461544,0.00455451,0.00448774,0.00441104,0.00432812,0.00423877,0.00414509,0.00404513,0.00394136,0.00383521,0.00371655,0.00359754,0.00347417,0.00334738,0.0032171,0.00308074,0.00294554,0.0027995,0.00265353,0.00250464,0.00235281,0.00219948,0.00203793,0.00187829,0.00171114,0.00154342,0.00137397,0.00120205,0.00103126,0.000848997,0.000667572,0.000486308,0.0003018,0.000116266,-6.96853e-05,-0.000255896,-0.000448472,-0.000642178,-0.000834855,-0.00102902,-0.00122241,-0.00141433,-0.00160975,-0.00180367,-0.00199832,-0.00219256,-0.00237898,-0.00256873,-0.0027563,-0.00294316,-0.00313145,-0.00330461,-0.00347633,-0.00364587,-0.00381338,-0.00398128,-0.00413151,-0.00427726,-0.00441668,-0.00454949,-0.00467475,-0.00479186,-0.00490412,-0.00499506,-0.00507741,-0.00515333,-0.00520897,-0.0052525,-0.00528026,-0.0052932,-0.00529123,-0.00527295,-0.00524119,-0.00518729,-0.00511569,-0.00502412,-0.00491051,-0.00477839,-0.00462204,-0.00444529,-0.00425033,-0.00403453,-0.00379839,-0.00354352,-0.0032729,-0.00298234,-0.0026794,-0.00236733,-0.00204217,-0.00171225,-0.00138215,-0.00106188,-0.000757683,-0.000470154,-0.000213097,-0
-0,0.000275263,0.000582177,0.000910572,0.00125479,0.00160566,0.00195656,0.00230253,0.00263885,0.00296136,0.00326842,0.00355733,0.00382617,0.00407881,0.00430934,0.00451715,0.00470334,0.004869,0.00501378,0.00513759,0.00524579,0.00533371,0.00540473,0.00545796,0.00549394,0.00551449,0.00552019,0.00551587,0.00549768,0.00546894,0.00542671,0.00537352,0.00531106,0.00524068,0.00516427,0.00507447,0.0049793,0.00487698,0.00476833,0.00465347,0.00453343,0.00441089,0.00427579,0.0041371,0.00399505,0.00384863,0.00369779,0.00354407,0.00338557,0.00321722,0.00304938,0.00287777,0.00270211,0.00252373,0.00234347,0.00215689,0.00196321,0.00177056,0.00157521,0.00137658,0.00117759,0.000974305,0.00076377,0.000553527,0.000341706,0.000128118,-8.70844e-05,-0.000304136,-0.000519599,-0.0007425,-0.000965244,-0.00118878,-0.00141409,-0.00163097,-0.00185481,-0.00207857,-0.00230229,-0.00252767,-0.00273984,-0.00295673,-0.00317246,-0.00338665,-0.00360226,-0.0038022,-0.00400166,-0.00419549,-0.0043862,-0.00457753,-0.00475005,-0.00491861,-0.00507944,-0.00523096,-0.00537408,-0.00550795,-0.00563617,-0.00574214,-0.00583624,-0.00592265,-0.00598623,-0.00603568,-0.00607033,-0.00608558,-0.00608346,-0.00606311,-0.00602714,-0.0059654,-0.005883,-0.00578281,-0.00565367,-0.00550161,-0.00532856,-0.00512839,-0.00490741,-0.00466334,-0.00439576,-0.00410655,-0.0037975,-0.00347276,-0.00312888,-0.00277093,-0.00240555,-0.00202941,-0.0016509,-0.00128034,-0.000921159,-0.000584925,-0.000272395,-0
-0,0.000338189,0.000704776,0.00109008,0.00148546,0.00188675,0.00228579,0.00267711,0.00305582,0.00341878,0.00376318,0.00408769,0.00439019,0.00466946,0.00492885,0.00516191,0.00537027,0.00555537,0.00571792,0.00585782,0.00597486,0.00607516,0.00615463,0.0062136,0.00625356,0.0062765,0.00628366,0.00627453,0.006255,0.0062222,0.00617337,0.00611288,0.00604146,0.00596125,0.0058735,0.0057725,0.00566307,0.00554626,0.00542307,0.00529179,0.00515516,0.00501461,0.0048613,0.00470521,0.0045415,0.00437484,0.00420262,0.00402665,0.00384973,0.00365592,0.00346416,0.00326885,0.00306912,0.00286507,0.00265808,0.0024516,0.00222869,0.0020082,0.00178596,0.00156008,0.00133296,0.00109877,0.000865868,0.000625309,0.000382893,0.00014043,-0.000104898,-0.000352498,-0.000600451,-0.000848236,-0.00110127,-0.00135637,-0.0016123,-0.00186252,-0.00211335,-0.00236655,-0.00262109,-0.00287682,-0.00312113,-0.00336546,-0.00360913,-0.00385241,-0.00409639,-0.00432399,-0.00455077,-0.00477254,-0.00498867,-0.00520392,-0.00539976,-0.00559091,-0.00577392,-0.00594678,-0.00610835,-0.00625979,-0.00640444,-0.00652459,-0.00663324,-0.00673075,-0.00680272,-0.00685883,-0.00689776,-0.00691803,-0.00691617,-0.0068936,-0.00685349,-0.00678458,-0.00669173,-0.00657805,-0.00643681,-0.00626597,-0.00606985,-0.00584985,-0.00560262,-0.00532859,-0.00502896,-0.00470508,-0.00435772,-0.00399105,-0.00360916,-0.00320595,-0.00279079,-0.00237003,-0.00194116,-0.00151745,-0.00110242,-0.00070519,-0.000336556,-0
-0,0.000406384,0.000836591,0.00128223,0.00173498,0.00218746,0.00263715,0.00307625,0.00349987,0.00390427,0.00428786,0.00464842,0.00498474,0.00529594,0.00558015,0.00584035,0.00607179,0.00627701,0.00645688,0.0066123,0.00674335,0.00685024,0.00693986,0.00700524,0.00704883,0.00707372,0.00708104,0.00707147,0.0070456,0.00700912,0.00695457,0.00688565,0.00680504,0.00671388,0.00661471,0.00650078,0.00637797,0.00624606,0.00610626,0.00595861,0.00580409,0.00564543,0.00547249,0.00529611,0.0051141,0.00492384,0.00472962,0.00453072,0.00432985,0.00411637,0.00389741,0.0036765,0.0034514,0.00322168,0.00298765,0.00275254,0.0025078,0.00225703,0.00200517,0.00175082,0.00149513,0.00123056,0.000965449,0.000700652,0.000426877,0.000152732,-0.000124238,-0.000403047,-0.000682598,-0.000964438,-0.00124444,-0.00153077,-0.00181909,-0.00210215,-0.00238713,-0.00266888,-0.002954,-0.00324112,-0.00351715,-0.00379448,-0.00406704,-0.00433906,-0.00461228,-0.00486886,-0.00512433,-0.00537378,-0.00561806,-0.00585938,-0.00607867,-0.00629326,-0.00649877,-0.0066935,-0.00687634,-0.00704569,-0.00720731,-0.00734197,-0.00746383,-0.00757545,-0.00765629,-0.0077196,-0.00776328,-0.00778576,-0.00778726,-0.00776271,-0.00771857,-0.00764184,-0.00753913,-0.0074127,-0.00725398,-0.00706823,-0.00685015,-0.00660364,-0.00633346,-0.00602907,-0.00569625,-0.00533632,-0.00495086,-0.00454252,-0.00411378,-0.00366873,-0.00320395,-0.00272883,-0.0022508,-0.00177082,-0.00129716,-0.000837979,-0.000401883,-0
-0,0.000478992,0.000977335,0.00148648,0.00199947,0.00250907,0.00300929,0.00349871,0.00396911,0.00441723,0.00484098,0.00523893,0.00560964,0.00595272,0.00626679,0.00654976,0.00680623,0.00703206,0.00722973,0.00740034,0.00754433,0.00766303,0.0077573,0.00783058,0.00787837,0.00790465,0.00791198,0.00790032,0.00787186,0.00782767,0.0077673,0.00769049,0.00759971,0.00749777,0.00738585,0.00725903,0.00712129,0.00697401,0.00681818,0.0066519,0.00647941,0.00630141,0.00610881,0.00591096,0.00570675,0.00549743,0.00527779,0.0050552,0.00483005,0.00459052,0.00435083,0.00410109,0.00384884,0.00359209,0.00333062,0.00306756,0.0027918,0.00251773,0.0022346,0.00194914,0.00166348,0.00136776,0.00107143,0.000772872,0.000472975,0.000166897,-0.000143955,-0.000455516,-0.000767981,-0.00108276,-0.00139792,-0.00171322,-0.00203343,-0.00235042,-0.00266918,-0.00298631,-0.00330176,-0.00362005,-0.00392861,-0.00423832,-0.00454436,-0.00484668,-0.00514944,-0.00543585,-0.00572072,-0.00599902,-0.00627125,-0.0065406,-0.00678621,-0.00702477,-0.00725341,-0.00747013,-0.0076739,-0.0078643,-0.00804349,-0.00819344,-0.00832902,-0.00845255,-0.0085454,-0.00861637,-0.00866568,-0.00869102,-0.00869219,-0.00866886,-0.00862049,-0.00853634,-0.00842353,-0.00828469,-0.00810954,-0.007903,-0.00766664,-0.00739488,-0.00709504,-0.00676364,-0.00639648,-0.00599974,-0.00557441,-0.00512395,-0.00464931,-0.0041529,-0.00364184,-0.00311229,-0.00257495,-0.00204059,-0.00150442,-0.000979789,-0.000474591,-0
-0,0.000556188,0.00112631,0.00170298,0.00227882,0.0028479,0.00340427,0.00394284,0.0044626,0.00495596,0.00542146,0.00585791,0.00626403,0.00663932,0.00698325,0.00729388,0.0075707,0.00781924,0.00803502,0.00822078,0.00837794,0.00850712,0.0086106,0.00868688,0.00874001,0.00876811,0.0087745,0.00876092,0.00872823,0.00867927,0.00861022,0.00852511,0.00842453,0.00831051,0.00818604,0.00804503,0.00789237,0.00772858,0.00755559,0.00737234,0.00717921,0.00698146,0.00676821,0.00654888,0.00632181,0.00608858,0.00584876,0.0055993,0.00534876,0.00508325,0.00481567,0.00454406,0.00426174,0.003976,0.00368644,0.00339429,0.00308842,0.00278234,0.00247396,0.00215615,0.00183843,0.00151053,0.00118165,0.000850492,0.000515687,0.000181637,-0.000163175,-0.000509227,-0.000855568,-0.00120478,-0.00155424,-0.00190579,-0.00225669,-0.00260745,-0.00296069,-0.00331216,-0.00366373,-0.00401393,-0.0043552,-0.00469813,-0.00503705,-0.00537334,-0.00570734,-0.00602377,-0.00633899,-0.00664704,-0.00694843,-0.00724589,-0.00751882,-0.00778415,-0.00803664,-0.00827613,-0.00850125,-0.00871166,-0.00891139,-0.00907725,-0.00922741,-0.00936379,-0.00946602,-0.00954775,-0.009603,-0.00963175,-0.00963369,-0.00960762,-0.00955858,-0.00946684,-0.00934378,-0.00919245,-0.00900082,-0.00877461,-0.00851415,-0.0082207,-0.00789246,-0.00752675,-0.00712901,-0.00669409,-0.00622756,-0.00573391,-0.00521209,-0.00466504,-0.00409804,-0.00351687,-0.00292044,-0.00232062,-0.00172363,-0.00113013,-0.000551927,-0
-0,0.000637222,0.00128299,0.00193038,0.00257257,0.00320316,0.0038176,0.00441092,0.00497816,0.00551936,0.00602826,0.00650424,0.00694668,0.00735517,0.00772896,0.00806701,0.00836903,0.00863546,0.0088715,0.00907308,0.00924267,0.0093825,0.0094941,0.00957718,0.00963131,0.00966226,0.00966832,0.0096516,0.00961487,0.00955962,0.00948375,0.00938843,0.00927719,0.00915148,0.00901323,0.00885814,0.0086894,0.00850892,0.00831764,0.00811539,0.00790439,0.0076842,0.00744964,0.00720796,0.00695769,0.00670008,0.00643474,0.00616397,0.00588513,0.00559248,0.00529748,0.00499616,0.00469066,0.00437377,0.00405347,0.00373198,0.00339515,0.00305748,0.00271569,0.00237129,0.00202026,0.0016579,0.00129606,0.000930898,0.000561947,0.000192234,-0.000183262,-0.00056393,-0.00094598,-0.00133024,-0.00171536,-0.00210248,-0.00249015,-0.0028742,-0.00326183,-0.00364871,-0.00403557,-0.00442212,-0.00479726,-0.00517347,-0.00554619,-0.0059159,-0.00628383,-0.00663285,-0.00697882,-0.00731722,-0.00764837,-0.00797488,-0.00827555,-0.00856805,-0.00884726,-0.00911036,-0.00935766,-0.0095887,-0.00980742,-0.00999218,-0.0101575,-0.0103074,-0.0104199,-0.0105094,-0.0105737,-0.0106065,-0.0106098,-0.0105821,-0.0105279,-0.0104316,-0.0102983,-0.0101342,-0.00992615,-0.00968051,-0.00939684,-0.0090756,-0.00872244,-0.00832377,-0.00788766,-0.00741787,-0.00690937,-0.00637043,-0.00580015,-0.00520159,-0.00457879,-0.00393637,-0.00328317,-0.00261773,-0.00194897,-0.00128824,-0.000633461,-0
-0,0.000721418,0.00144725,0.00216877,0.00287971,0.00357495,0.00424919,0.00489871,0.00551886,0.00610543,0.00666011,0.00717723,0.0076568,0.00809906,0.00850359,0.00886914,0.00919588,0.00948482,0.00973629,0.00995527,0.0101382,0.010288,0.0104076,0.0104966,0.0105551,0.0105849,0.0105911,0.0105719,0.0105298,0.0104684,0.0103845,0.0102801,0.0101573,0.0100186,0.00986683,0.00969656,0.0095117,0.0093135,0.00910395,0.00888178,0.00865002,0.00841094,0.00815236,0.00788733,0.00761334,0.00733124,0.00703986,0.00674205,0.0064409,0.00611844,0.00579445,0.00546431,0.00512783,0.00478603,0.00443367,0.00408021,0.00371188,0.00334219,0.00296737,0.0025881,0.00220906,0.00181181,0.00141446,0.0010148,0.000610914,0.000205983,-0.000207589,-0.000620219,-0.00103774,-0.00145889,-0.00188026,-0.002304,-0.00272815,-0.00315093,-0.00357307,-0.00399517,-0.00441815,-0.00484037,-0.00525314,-0.00566447,-0.00607114,-0.00647516,-0.00687683,-0.00726007,-0.00763912,-0.00800867,-0.00837056,-0.00872682,-0.00905617,-0.00937624,-0.00968205,-0.00997165,-0.0102419,-0.0104945,-0.0107331,-0.0109348,-0.0111183,-0.0112823,-0.0114059,-0.0115044,-0.0115745,-0.0116142,-0.011619,-0.0115902,-0.0115322,-0.0114269,-0.0112867,-0.0111098,-0.0108847,-0.0106193,-0.0103127,-0.00996465,-0.00958028,-0.00915181,-0.00867868,-0.00816647,-0.00761835,-0.00703344,-0.0064129,-0.00576049,-0.00508112,-0.00437765,-0.00365748,-0.00292892,-0.0021884,-0.00144839,-0.000718464,-0