-0,-0.000884712,-0.00244225,-0.00374011,-0.00433882,-0.00407556,-0.002698,-0.000122548,0.00281599,0.00695557,0.0119143,0.0179172,0.0243972,0.0320435,0.0402683,0.0481087,0.0573494,0.0663977,0.0765583,0.0861345,0.0970142,0.106857,0.118419,0.129187,0.139048,0.150898,0.161014,0.172918,0.182845,0.19502,0.205538,0.214954,0.226866,0.236071,0.247768,0.25763,0.266224,0.277399,0.285693,0.296116,0.304104,0.314167,0.322514,0.32979,0.338883,0.345886,0.354006,0.360662,0.368092,0.374743,0.380638,0.386715,0.39232,0.397465,0.402619,0.406753,0.411346,0.41578,0.418295,0.422182,0.423764,0.426503,0.429756,0.429686,0.432038,0.430976,0.431581,0.433385,0.430872,0.43132,0.428143,0.427685,0.423219,0.420564,0.419652,0.414162,0.411547,0.404857,0.399491,0.39621,0.388782,0.383835,0.375209,0.367397,0.361575,0.352435,0.34513,0.334886,0.324926,0.316587,0.30597,0.296501,0.285225,0.274858,0.262788,0.250564,0.239293,0.227139,0.214648,0.202747,0.190593,0.178535,0.166251,0.154018,0.141814,0.129188,0.116664,0.105106,0.0932856,0.0814139,0.0710002,0.0602806,0.0511118,0.0418394,0.0324151,0.0250239,0.0172838,0.0119231,0.00673193,0.00129115,-0.0012948,-0.00446651,-0.00450658,-0.00431608,-0.00489415,-0.00251697,-0.00207429,-0
-0.000884712,-0.000567303,-0.000526725,-0.000333593,0.000242742,0.00139073,0.00321412,0.00581989,0.00924589,0.0133233,0.0181738,0.0237019,0.0299075,0.0366487,0.0440317,0.051915,0.0600593,0.0687458,0.0776643,0.0869948,0.0964166,0.106236,0.116,0.126173,0.136306,0.146285,0.156636,0.166695,0.177014,0.186982,0.197274,0.207262,0.21691,0.226894,0.236317,0.245996,0.255312,0.264185,0.273357,0.281897,0.290561,0.298688,0.306929,0.314747,0.32213,0.329587,0.33651,0.343333,0.349732,0.355968,0.361875,0.367404,0.372663,0.377612,0.382175,0.386497,0.390319,0.393942,0.397309,0.400007,0.402647,0.404581,0.406351,0.407995,0.408708,0.409506,0.409418,0.409183,0.408946,0.407612,0.406413,0.404321,0.402283,0.399237,0.396046,0.392913,0.388689,0.384573,0.379497,0.374159,0.368929,0.362685,0.356492,0.34943,0.342056,0.334768,0.326653,0.318516,0.309671,0.300496,0.291361,0.281631,0.271834,0.26158,0.251247,0.240481,0.229462,0.218441,0.207181,0.195748,0.184346,0.172908,0.161487,0.150098,0.138778,0.12759,0.116462,0.105479,0.0948745,0.084491,0.074339,0.064795,0.0555796,0.0470831,0.0390902,0.0315521,0.0249356,0.0188557,0.0138133,0.00951117,0.00578343,0.00321394,0.00117205,0.000193879,-0.00025237,-0.000613548,-0.000335627,-0.00207429
-0.00198363,-0.000524674,0.000867249,0.00231609,0.00392704,0.00586896,0.00826757,0.0111957,0.0147011,0.0188069,0.0235146,0.0287686,0.0345799,0.0408916,0.0476783,0.0548929,0.0625152,0.0704968,0.0787435,0.0873024,0.0960546,0.105025,0.114135,0.123394,0.132719,0.142146,0.151609,0.161016,0.170504,0.17987,0.189239,0.198494,0.207704,0.216795,0.225686,0.23455,0.243154,0.251672,0.260004,0.268069,0.276047,0.283716,0.291223,0.298474,0.305519,0.312316,0.318811,0.32511,0.331091,0.336819,0.342257,0.34741,0.352273,0.356829,0.361067,0.36501,0.368606,0.371894,0.374823,0.377426,0.379737,0.381608,0.383218,0.384389,0.385209,0.385755,0.385797,0.385591,0.38491,0.383845,0.382521,0.380655,0.378543,0.375962,0.373032,0.369645,0.365866,0.361833,0.357268,0.352452,0.347167,0.341485,0.335556,0.329136,0.32247,0.315391,0.307944,0.300265,0.292172,0.283854,0.275204,0.266251,0.257105,0.247657,0.238035,0.2282,0.218204,0.208034,0.197712,0.187315,0.176832,0.1663,0.155777,0.145293,0.134873,0.12457,0.114418,0.104462,0.0947285,0.0852469,0.076116,0.0673291,0.0589218,0.0510203,0.0435768,0.0367131,0.0304435,0.0247323,0.0197285,0.0153189,0.0116092,0.00854596,0.00598967,0.00400797,0.00231443,0.000841325,-0.000628493,-0.00246722
-0.0031771,-0.000323652,0.00230079,0.00478508,0.00725224,0.00986235,0.0127317,0.0159547,0.0195881,0.023669,0.0282085,0.0332127,0.0386681,0.0445466,0.0508371,0.0574994,0.064514,0.0718342,0.0794451,0.0873,0.0953599,0.103615,0.112009,0.120539,0.129147,0.137838,0.146551,0.155308,0.164045,0.172747,0.181423,0.190012,0.198543,0.206951,0.215274,0.223453,0.231483,0.239383,0.247093,0.254655,0.262017,0.269172,0.276144,0.282881,0.289417,0.295704,0.301769,0.307581,0.313136,0.31844,0.323473,0.328237,0.332721,0.336918,0.340829,0.344445,0.347751,0.350762,0.353447,0.355831,0.357872,0.359602,0.361011,0.36206,0.362798,0.363162,0.363199,0.362909,0.362232,0.361236,0.359844,0.358116,0.356057,0.353604,0.350826,0.347654,0.344159,0.340274,0.336052,0.331502,0.326575,0.321335,0.315725,0.309793,0.303562,0.296992,0.290138,0.282958,0.275495,0.267777,0.259784,0.251561,0.243088,0.234399,0.225526,0.21647,0.20727,0.197929,0.188487,0.178955,0.169365,0.159751,0.15014,0.140559,0.131044,0.121634,0.112358,0.103262,0.0943723,0.0857387,0.077386,0.0693523,0.0616894,0.0544205,0.0475702,0.0411947,0.0352874,0.0299029,0.0250267,0.0206454,0.0167719,0.0133301,0.0102964,0.00754648,0.00492665,0.00230213,-0.000265201,-0.00490783
-0.00383287,0.000263561,0.00391275,0.00726268,0.0104271,0.0135696,0.0168179,0.020267,0.0239872,0.0280261,0.0324125,0.0371598,0.0422713,0.0477401,0.0535521,0.0596896,0.0661303,0.0728496,0.0798208,0.0870191,0.0944157,0.101983,0.109696,0.117526,0.125449,0.133441,0.141479,0.149539,0.157605,0.165651,0.173659,0.181616,0.1895,0.197299,0.204995,0.212578,0.220033,0.227346,0.23451,0.24151,0.248338,0.254985,0.261439,0.267695,0.273743,0.279575,0.285183,0.290562,0.295704,0.300602,0.305251,0.309644,0.313775,0.31764,0.32123,0.324544,0.327576,0.330319,0.332771,0.334926,0.336781,0.338329,0.33957,0.3405,0.341113,0.341411,0.341386,0.341038,0.340367,0.339365,0.338037,0.336379,0.334392,0.332078,0.32943,0.326454,0.323151,0.319526,0.315574,0.311304,0.306718,0.301818,0.296613,0.291108,0.285309,0.279227,0.272864,0.266234,0.259346,0.252212,0.244849,0.237264,0.229474,0.221494,0.213342,0.205039,0.196602,0.188052,0.179411,0.170703,0.161953,0.153187,0.144431,0.135713,0.127061,0.118506,0.110079,0.101812,0.0937361,0.0858825,0.078284,0.0709695,0.0639683,0.0573082,0.0510122,0.0450968,0.0395794,0.0344624,0.0297443,0.0254071,0.0214162,0.0177228,0.0142491,0.0108932,0.00752938,0.00397989,0.000147695,-0.00425404
-0.00354122,0.0014063,0.00587567,0.00989406,0.0135993,0.0171504,0.020678,0.0242814,0.028038,0.032004,0.0362189,0.0407077,0.045483,0.050549,0.0559016,0.0615317,0.0674249,0.0735644,0.0799305,0.086502,0.0932569,0.100172,0.107226,0.114393,0.121653,0.128984,0.136363,0.143772,0.15119,0.158599,0.16598,0.173318,0.180595,0.187798,0.19491,0.201919,0.208813,0.21558,0.222208,0.228686,0.235005,0.241155,0.247128,0.252915,0.258508,0.2639,0.269082,0.274049,0.278794,0.283311,0.287594,0.291637,0.295435,0.298982,0.302275,0.305307,0.308074,0.310572,0.312798,0.314746,0.316415,0.317798,0.318895,0.319701,0.320214,0.320432,0.320352,0.319973,0.319293,0.318309,0.317023,0.315432,0.313539,0.311342,0.308841,0.306039,0.302936,0.299536,0.295841,0.291854,0.28758,0.283021,0.278186,0.273078,0.267706,0.262076,0.256196,0.250076,0.243727,0.237159,0.230385,0.223417,0.216269,0.208956,0.201495,0.193902,0.186196,0.178396,0.170521,0.162595,0.154639,0.146676,0.13873,0.130826,0.12299,0.115248,0.107626,0.10015,0.0928479,0.0857445,0.0788649,0.072233,0.06587,0.0597949,0.0540216,0.048561,0.0434157,0.0385809,0.0340425,0.0297722,0.0257273,0.021848,0.0180506,0.0142316,0.0102563,0.00593106,0.00108562,-0.00455237
-0.00235586,0.00325336,0.00830498,0.0128114,0.016898,0.0207328,0.0244404,0.0281219,0.0318585,0.0357128,0.0397318,0.0439485,0.0483844,0.0530518,0.0579549,0.0630918,0.0684558,0.0740362,0.0798192,0.085789,0.0919279,0.0982173,0.104638,0.11117,0.117794,0.12449,0.131239,0.138023,0.144822,0.151621,0.1584,0.165146,0.171842,0.178473,0.185027,0.191489,0.197848,0.204091,0.210208,0.216188,0.222022,0.2277,0.233214,0.238555,0.243716,0.248689,0.253467,0.258044,0.262414,0.26657,0.270507,0.274219,0.277703,0.280952,0.283962,0.286729,0.289249,0.291518,0.293532,0.295288,0.296782,0.298012,0.298975,0.299667,0.300088,0.300235,0.300106,0.2997,0.299016,0.298052,0.296809,0.295285,0.293483,0.291402,0.289042,0.286407,0.283496,0.280315,0.276864,0.273148,0.26917,0.264937,0.260452,0.255722,0.250754,0.245555,0.240134,0.234499,0.228659,0.222628,0.216414,0.210031,0.203492,0.196811,0.190004,0.183086,0.176073,0.168985,0.161839,0.154655,0.147452,0.140253,0.133078,0.125949,0.118888,0.111917,0.10506,0.0983386,0.0917736,0.0853859,0.0791948,0.0732174,0.0674685,0.0619593,0.0566972,0.0516835,0.0469134,0.0423736,0.0380408,0.0338795,0.0298401,0.0258558,0.0218423,0.0176922,0.0132648,0.00845645,0.00309587,-0.00463548
-6.87769e-05,0.00585798,0.0112816,0.016101,0.0204247,0.0244216,0.0282105,0.031892,0.0355489,0.0392477,0.0430404,0.0469659,0.0510526,0.0553192,0.0597769,0.06443,0.0692779,0.0743155,0.0795342,0.0849228,0.0904679,0.0961547,0.101967,0.107888,0.113901,0.119988,0.126133,0.132317,0.138523,0.144737,0.15094,0.15712,0.163259,0.169345,0.175364,0.181304,0.187151,0.192895,0.198526,0.204031,0.209403,0.214632,0.21971,0.224627,0.229378,0.233954,0.238349,0.242556,0.246571,0.250386,0.253996,0.257398,0.260585,0.263553,0.266298,0.268817,0.271105,0.273159,0.274976,0.276552,0.277885,0.278972,0.279811,0.2804,0.280737,0.28082,0.280648,0.28022,0.279535,0.278593,0.277394,0.275938,0.274225,0.272256,0.270033,0.267558,0.264833,0.26186,0.258644,0.255186,0.251493,0.247568,0.243417,0.239047,0.234464,0.229674,0.224687,0.219512,0.214157,0.208633,0.202952,0.197124,0.191163,0.185081,0.178894,0.172615,0.166262,0.159849,0.153394,0.146914,0.140429,0.133955,0.127513,0.121121,0.114798,0.108564,0.102437,0.0964344,0.0905745,0.0848725,0.0793423,0.0739957,0.0688413,0.063884,0.0591242,0.0545569,0.05017,0.0459435,0.0418474,0.0378406,0.0338686,0.0298621,0.0257341,0.0213812,0.0166825,0.011461,0.00557126,-0.00139154
0.00312657,0.00923805,0.0148795,0.0198289,0.0242553,0.0282984,0.0320731,0.0356772,0.0391934,0.0426901,0.0462222,0.0498333,0.0535564,0.0574156,0.0614273,0.0656014,0.0699423,0.0744496,0.0791193,0.0839444,0.0889151,0.0940201,0.0992462,0.104579,0.110005,0.115507,0.12107,0.126678,0.132317,0.13797,0.143622,0.149259,0.154867,0.160431,0.16594,0.17138,0.176741,0.182009,0.187176,0.19223,0.197162,0.201964,0.206627,0.211143,0.215505,0.219705,0.223738,0.227596,0.231275,0.234768,0.238071,0.241179,0.244087,0.246792,0.249289,0.251575,0.253647,0.2555,0.257133,0.258542,0.259726,0.260681,0.261407,0.261901,0.262162,0.262188,0.261979,0.261534,0.260852,0.259934,0.25878,0.25739,0.255765,0.253906,0.251816,0.249496,0.246948,0.244176,0.241183,0.237973,0.23455,0.230919,0.227087,0.223058,0.21884,0.21444,0.209866,0.205127,0.200231,0.19519,0.190013,0.184712,0.179298,0.173785,0.168187,0.162515,0.156787,0.151015,0.145217,0.139407,0.133602,0.127819,0.122075,0.116385,0.110766,0.105234,0.0998047,0.0944916,0.089308,0.0842653,0.0793728,0.0746371,0.0700615,0.0656457,0.0613843,0.0572664,0.0532744,0.0493828,0.045557,0.0417516,0.0379094,0.0339595,0.0298167,0.0253812,0.0205271,0.0151071,0.00922941,0.000926445
0.0072156,0.0133752,0.0190927,0.0240412,0.0284429,0.0324252,0.0360951,0.039547,0.0428621,0.046109,0.0493446,0.052615,0.055957,0.0593987,0.0629606,0.066657,0.0704965,0.0744829,0.0786161,0.0828924,0.0873055,0.0918471,0.0965066,0.101272,0.106132,0.111071,0.116075,0.121132,0.126225,0.131341,0.136465,0.141584,0.146683,0.15175,0.156771,0.161736,0.166632,0.171447,0.176173,0.180798,0.185313,0.18971,0.19398,0.198115,0.202109,0.205954,0.209644,0.213172,0.216534,0.219725,0.222738,0.225571,0.228218,0.230675,0.23294,0.235009,0.236878,0.238544,0.240007,0.241261,0.242307,0.243142,0.243763,0.244171,0.244363,0.24434,0.244099,0.243641,0.242966,0.242074,0.240966,0.239642,0.238103,0.236352,0.234389,0.232218,0.229841,0.227261,0.224483,0.221509,0.218344,0.214994,0.211464,0.20776,0.20389,0.19986,0.195677,0.191352,0.186892,0.182308,0.17761,0.172808,0.167915,0.162942,0.157901,0.152806,0.147671,0.142509,0.137334,0.132161,0.127005,0.12188,0.1168,0.11178,0.106833,0.101973,0.0972119,0.0925601,0.0880272,0.0836206,0.0793456,0.0752043,0.0711955,0.0673142,0.0635501,0.0598877,0.0563049,0.052772,0.0492508,0.0456934,0.0420411,0.0382233,0.0341567,0.0297454,0.0248873,0.0194478,0.0133559,0.00640386
0.0118815,0.018407,0.0239314,0.0287577,0.0330237,0.0368468,0.0403278,0.0435568,0.0466125,0.0495627,0.052465,0.0553672,0.0583086,0.0613201,0.0644258,0.0676432,0.0709844,0.0744566,0.078063,0.081803,0.0856732,0.0896677,0.0937785,0.0979959,0.102309,0.106706,0.111174,0.1157,0.12027,0.124871,0.12949,0.134112,0.138726,0.143317,0.147875,0.152386,0.156839,0.161224,0.16553,0.169748,0.173867,0.17788,0.181778,0.185554,0.189199,0.192709,0.196075,0.199294,0.202358,0.205263,0.208005,0.210579,0.212981,0.215208,0.217255,0.219121,0.220802,0.222295,0.223599,0.224711,0.22563,0.226353,0.226881,0.22721,0.227341,0.227274,0.227007,0.226541,0.225875,0.225011,0.22395,0.222691,0.221238,0.21959,0.217752,0.215725,0.213512,0.211116,0.208542,0.205794,0.202875,0.199792,0.19655,0.193156,0.189615,0.185936,0.182126,0.178194,0.174148,0.169998,0.165754,0.161426,0.157026,0.152564,0.148054,0.143506,0.138935,0.134352,0.12977,0.125203,0.120664,0.116166,0.111721,0.107341,0.103037,0.0988208,0.0947009,0.0906853,0.0867802,0.0829895,0.0793147,0.0757542,0.0723029,0.0689516,0.0656863,0.0624875,0.0593296,0.0561797,0.0529973,0.0497329,0.0463273,0.0427112,0.038804,0.0345157,0.0297455,0.0243528,0.018206,0.0111608
0.018144,0.0241461,0.0293995,0.03399,0.0380194,0.0415947,0.0448099,0.04775,0.050491,0.0530991,0.0556319,0.0581381,0.0606582,0.0632256,0.0658667,0.0686018,0.0714457,0.0744084,0.0774958,0.08071,0.08405,0.0875121,0.0910903,0.0947768,0.0985623,0.102436,0.106387,0.110403,0.114472,0.11858,0.122714,0.126863,0.131012,0.13515,0.139265,0.143344,0.147377,0.151353,0.155261,0.159092,0.162837,0.166486,0.170032,0.173468,0.176785,0.179979,0.183041,0.185967,0.188751,0.191389,0.193876,0.196208,0.198382,0.200392,0.202238,0.203915,0.205421,0.206754,0.207911,0.208892,0.209694,0.210316,0.210758,0.211017,0.211094,0.210989,0.2107,0.21023,0.209577,0.208743,0.207728,0.206535,0.205165,0.203619,0.201901,0.200012,0.197957,0.195738,0.19336,0.190826,0.188143,0.185314,0.182346,0.179245,0.176018,0.172673,0.169216,0.165656,0.162003,0.158264,0.154451,0.150573,0.146641,0.142665,0.138658,0.134631,0.130595,0.126563,0.122546,0.118556,0.114606,0.110705,0.106866,0.103099,0.0994114,0.0958131,0.0923104,0.0889085,0.0856108,0.082418,0.0793286,0.0763376,0.0734366,0.070613,0.0678495,0.0651236,0.0624069,0.0596643,0.0568535,0.0539243,0.0508182,0.0474673,0.0437951,0.0397165,0.0351284,0.0299822,0.0241685,0.015964
0.0251229,0.0305398,0.0354716,0.0397338,0.0434408,0.0466897,0.0495691,0.0521599,0.0545346,0.0567578,0.0588861,0.0609686,0.0630467,0.0651552,0.0673223,0.0695703,0.0719163,0.0743727,0.0769473,0.0796446,0.0824655,0.0854082,0.0884685,0.0916402,0.0949154,0.0982847,0.101738,0.105263,0.10885,0.112485,0.116156,0.119851,0.123558,0.127264,0.130957,0.134625,0.138259,0.141846,0.145377,0.148842,0.152232,0.155538,0.158752,0.161867,0.164875,0.16777,0.170547,0.173199,0.175721,0.178108,0.180357,0.182463,0.184422,0.186232,0.187889,0.189391,0.190735,0.19192,0.192943,0.193803,0.194498,0.195028,0.195392,0.195589,0.195618,0.195481,0.195176,0.194704,0.194066,0.193264,0.192297,0.191169,0.18988,0.188433,0.186831,0.185076,0.183172,0.181122,0.178931,0.176603,0.174143,0.171556,0.168849,0.166027,0.163098,0.160069,0.156948,0.153742,0.15046,0.147113,0.143708,0.140257,0.136769,0.133255,0.129726,0.126193,0.122666,0.119158,0.115679,0.11224,0.108851,0.105522,0.102263,0.099082,0.0959865,0.0929827,0.0900751,0.0872666,0.084558,0.0819475,0.0794307,0.0769998,0.0746436,0.0723467,0.0700892,0.067846,0.0655867,0.0632744,0.0608661,0.0583113,0.0555524,0.0525238,0.0491522,0.0453569,0.0410596,0.0361405,0.0305261,0.0238805
0.0324996,0.0376545,0.0421297,0.0459857,0.049291,0.0521437,0.054625,0.0568114,0.0587722,0.0605703,0.062261,0.0638933,0.0655089,0.0671435,0.0688265,0.0705819,0.0724285,0.0743802,0.076447,0.0786348,0.0809464,0.0833815,0.0859374,0.0886091,0.0913899,0.0942715,0.0972445,0.100298,0.103422,0.106604,0.109832,0.113093,0.116377,0.119671,0.122963,0.126241,0.129495,0.132714,0.135887,0.139006,0.142061,0.145042,0.147944,0.150756,0.153474,0.15609,0.158598,0.160992,0.163269,0.165422,0.167448,0.169344,0.171104,0.172727,0.17421,0.17555,0.176745,0.177793,0.178692,0.179441,0.18004,0.180486,0.18078,0.180921,0.180909,0.180744,0.180427,0.179958,0.179338,0.178568,0.17765,0.176586,0.175377,0.174026,0.172536,0.170909,0.16915,0.167263,0.16525,0.163118,0.160871,0.158515,0.156055,0.153499,0.150853,0.148124,0.14532,0.14245,0.139522,0.136545,0.133528,0.130482,0.127416,0.12434,0.121266,0.118202,0.115161,0.112152,0.109185,0.106271,0.103419,0.100637,0.0979336,0.0953158,0.0927892,0.0903584,0.0880258,0.0857924,0.0836566,0.0816145,0.0796592,0.0777806,0.0759651,0.0741949,0.0724479,0.0706973,0.0689108,0.0670507,0.0650731,0.0629282,0.0605592,0.0579031,0.0548895,0.0514454,0.0474823,0.0429191,0.0378968,0.0306725
0.0409503,0.0453531,0.0493514,0.0527262,0.0555684,0.0579625,0.0599898,0.0617221,0.0632259,0.0645618,0.065784,0.0669408,0.0680742,0.0692201,0.0704089,0.0716657,0.0730104,0.0744586,0.0760213,0.0777061,0.0795171,0.0814552,0.0835189,0.0857044,0.0880058,0.0904158,0.0929255,0.0955251,0.098204,0.100951,0.103754,0.106602,0.109483,0.112384,0.115294,0.118201,0.121095,0.123965,0.126801,0.129592,0.132331,0.135007,0.137613,0.140142,0.142587,0.14494,0.147197,0.149351,0.151398,0.153333,0.155152,0.156851,0.158427,0.159877,0.161198,0.162389,0.163446,0.164368,0.165154,0.165802,0.166313,0.166684,0.166915,0.167007,0.16696,0.166773,0.166447,0.165984,0.165384,0.164648,0.163778,0.162777,0.161646,0.160389,0.159007,0.157504,0.155884,0.154151,0.15231,0.150364,0.14832,0.146183,0.143959,0.141655,0.139277,0.136833,0.134331,0.13178,0.129187,0.126561,0.123913,0.121251,0.118585,0.115926,0.113283,0.110667,0.108088,0.105554,0.103077,0.100665,0.0983256,0.0960676,0.0938977,0.0918213,0.0898429,0.0879653,0.0861896,0.0845146,0.0829371,0.081451,0.0800476,0.0787147,0.0774366,0.0761936,0.074962,0.0737133,0.0724142,0.0710261,0.069505,0.0678015,0.0658602,0.0636201,0.0610152,0.0579728,0.0544277,0.0503057,0.0455736,0.0401262
0.0496865,0.0537014,0.0571261,0.0599512,0.062265,0.0641467,0.0656705,0.0669043,0.0679119,0.0687518,0.0694769,0.0701348,0.0707672,0.0714102,0.0720948,0.0728467,0.0736869,0.0746317,0.0756936,0.076881,0.0781991,0.0796499,0.0812328,0.0829448,0.0847808,0.0867341,0.0887965,0.0909585,0.0932099,0.0955398,0.0979368,0.100389,0.102885,0.105412,0.107959,0.110515,0.113068,0.115608,0.118124,0.120606,0.123047,0.125435,0.127765,0.130027,0.132216,0.134324,0.136345,0.138275,0.140108,0.14184,0.143466,0.144983,0.146388,0.147678,0.14885,0.149903,0.150833,0.15164,0.152323,0.15288,0.15331,0.153614,0.15379,0.153839,0.153761,0.153557,0.153227,0.152772,0.152193,0.151492,0.150672,0.149733,0.148678,0.147511,0.146233,0.14485,0.143363,0.141779,0.1401,0.138333,0.136482,0.134553,0.132552,0.130487,0.128364,0.126191,0.123975,0.121726,0.11945,0.117159,0.11486,0.112563,0.110278,0.108015,0.105783,0.103593,0.101454,0.0993744,0.0973643,0.0954317,0.0935844,0.0918292,0.0901718,0.0886169,0.0871676,0.0858253,0.0845897,0.0834582,0.0824258,0.0814849,0.0806248,0.0798319,0.0790886,0.0783738,0.0776622,0.0769243,0.0761257,0.0752275,0.0741857,0.0729513,0.0714703,0.0696842,0.067529,0.064937,0.0618404,0.0581518,0.0538063,0.0486416
0.0594368,0.0625679,0.0653842,0.0676356,0.06937,0.0706929,0.0716696,0.0723655,0.0728418,0.0731551,0.073357,0.0734943,0.0736082,0.073735,0.0739056,0.0741465,0.0744791,0.0749206,0.0754841,0.0761791,0.0770113,0.0779837,0.0790962,0.0803466,0.0817304,0.0832412,0.0848712,0.0866114,0.0884518,0.0903816,0.0923894,0.0944636,0.0965924,0.0987639,0.100966,0.103188,0.105418,0.107646,0.10986,0.112052,0.114212,0.11633,0.1184,0.120413,0.122362,0.12424,0.126042,0.127763,0.129397,0.130939,0.132387,0.133736,0.134983,0.136125,0.13716,0.138085,0.1389,0.139602,0.140191,0.140665,0.141024,0.141267,0.141394,0.141406,0.141303,0.141085,0.140754,0.14031,0.139754,0.13909,0.138317,0.13744,0.13646,0.13538,0.134203,0.132934,0.131575,0.130132,0.128609,0.127011,0.125344,0.123613,0.121825,0.119987,0.118106,0.116189,0.114245,0.112282,0.110308,0.108333,0.106366,0.104416,0.102493,0.100607,0.0987668,0.0969823,0.0952628,0.0936173,0.0920541,0.0905812,0.0892056,0.0879334,0.0867696,0.0857178,0.08478,0.0839567,0.0832462,0.0826445,0.0821454,0.0817398,0.0814156,0.0811576,0.080947,0.0807613,0.0805742,0.0803549,0.0800687,0.0796762,0.0791335,0.0783923,0.0773999,0.0760993,0.0744301,0.0723277,0.0697164,0.0665897,0.0629043,0.0571007
0.0693748,0.0720326,0.0741607,0.0757533,0.0768729,0.0775954,0.0779869,0.0781099,0.0780234,0.0777825,0.0774376,0.0770344,0.0766137,0.0762116,0.0758593,0.0755831,0.0754051,0.075343,0.0754104,0.0756173,0.07597,0.0764721,0.0771241,0.077924,0.0788677,0.0799493,0.0811613,0.0824947,0.0839396,0.0854854,0.0871206,0.0888337,0.0906127,0.0924456,0.0943207,0.0962261,0.0981506,0.100083,0.102013,0.103931,0.105827,0.107692,0.109518,0.111297,0.113022,0.114687,0.116285,0.117811,0.11926,0.120627,0.121909,0.123102,0.124203,0.12521,0.126119,0.126928,0.127637,0.128244,0.128747,0.129147,0.129441,0.129631,0.129716,0.129696,0.129572,0.129345,0.129015,0.128584,0.128053,0.127425,0.126701,0.125884,0.124976,0.123981,0.122902,0.121742,0.120506,0.119198,0.117823,0.116386,0.114893,0.113351,0.111765,0.110142,0.10849,0.106817,0.105131,0.10344,0.101752,0.100078,0.0984264,0.0968063,0.0952277,0.0937,0.0922328,0.0908355,0.0895171,0.0882864,0.0871513,0.0861193,0.0851969,0.0843897,0.0837018,0.0831362,0.082694,0.0823747,0.0821754,0.0820913,0.0821148,0.0822357,0.0824407,0.0827133,0.0830335,0.0833779,0.083719,0.0840255,0.084262,0.0843889,0.0843625,0.0841351,0.083655,0.082867,0.0817124,0.0801304,0.0780576,0.0754352,0.0721919,0.0681834
0.0803411,0.0818474,0.0833917,0.0842989,0.08476,0.0848466,0.0846193,0.0841385,0.0834615,0.0826417,0.0817285,0.0807667,0.0797968,0.0788543,0.0779704,0.0771717,0.0764802,0.0759141,0.0754872,0.0752099,0.0750891,0.0751285,0.0753289,0.0756887,0.076204,0.076869,0.0776763,0.078617,0.0796813,0.0808584,0.0821368,0.0835048,0.0849503,0.0864612,0.0880254,0.089631,0.0912666,0.0929208,0.0945831,0.0962431,0.0978914,0.0995187,0.101117,0.102678,0.104194,0.105659,0.107067,0.108413,0.10969,0.110896,0.112025,0.113075,0.114042,0.114923,0.115717,0.116421,0.117034,0.117554,0.11798,0.118312,0.11855,0.118692,0.11874,0.118694,0.118553,0.11832,0.117994,0.117579,0.117074,0.116483,0.115807,0.115049,0.114212,0.113298,0.112312,0.111257,0.110138,0.108959,0.107726,0.106442,0.105116,0.103752,0.102357,0.100939,0.0995055,0.0980634,0.0966215,0.0951885,0.0937731,0.0923846,0.0910325,0.0897262,0.0884753,0.0872895,0.0861783,0.0851508,0.0842161,0.0833826,0.0826581,0.0820497,0.0815635,0.0812046,0.0809766,0.0808817,0.0809205,0.0810914,0.081391,0.0818133,0.0823499,0.0829893,0.0837174,0.0845166,0.0853661,0.0862413,0.087114,0.0879524,0.0887205,0.0893785,0.0898831,0.0901867,0.0902388,0.0899853,0.0893699,0.0883326,0.0868118,0.084714,0.0823164,0.0778988
0.0908267,0.0922843,0.0930442,0.0932432,0.0930186,0.0924382,0.0915624,0.0904505,0.0891582,0.0877376,0.0862369,0.0847003,0.0831676,0.0816742,0.080251,0.0789244,0.0777167,0.0766461,0.0757267,0.0749689,0.0743799,0.0739635,0.0737208,0.0736503,0.073748,0.0740083,0.0744237,0.0749852,0.0756829,0.0765058,0.0774424,0.0784806,0.0796082,0.0808127,0.0820819,0.0834037,0.0847661,0.0861578,0.0875679,0.0889859,0.090402,0.0918068,0.0931919,0.0945491,0.0958711,0.0971511,0.0983829,0.099561,0.10068,0.101736,0.102725,0.103643,0.104487,0.105254,0.105942,0.10655,0.107076,0.107517,0.107875,0.108147,0.108334,0.108435,0.108451,0.108382,0.108229,0.107993,0.107675,0.107276,0.106798,0.106244,0.105616,0.104916,0.104147,0.103312,0.102416,0.101462,0.100455,0.099399,0.0982998,0.0971627,0.0959939,0.0947997,0.0935871,0.0923633,0.0911359,0.0899132,0.0887034,0.0875155,0.0863585,0.0852418,0.0841748,0.0831673,0.0822289,0.0813693,0.0805981,0.0799244,0.0793571,0.0789047,0.0785746,0.0783739,0.0783083,0.0783824,0.0785995,0.0789613,0.0794677,0.0801166,0.0809037,0.0818224,0.0828632,0.0840141,0.0852599,0.0865822,0.0879593,0.0893658,0.0907731,0.0921484,0.0934556,0.0946548,0.0957025,0.0965517,0.0971524,0.0974517,0.0973943,0.0969238,0.0959681,0.0945092,0.09253,0.0901733
0.102519,0.103199,0.103124,0.102579,0.101635,0.10036,0.0988105,0.0970436,0.0951141,0.0930729,0.0909676,0.0888416,0.086734,0.08468,0.0827102,0.0808511,0.0791246,0.0775491,0.0761386,0.0749037,0.0738516,0.072986,0.0723081,0.0718163,0.0715067,0.0713734,0.0714088,0.0716038,0.0719482,0.0724309,0.0730398,0.0737628,0.0745873,0.0755005,0.0764898,0.0775427,0.0786472,0.0797915,0.0809644,0.0821552,0.0833537,0.0845506,0.0857369,0.0869045,0.0880458,0.0891538,0.0902224,0.0912458,0.092219,0.0931373,0.0939966,0.0947935,0.0955249,0.0961881,0.0967808,0.0973012,0.0977477,0.0981192,0.0984148,0.0986339,0.0987762,0.0988418,0.0988308,0.0987439,0.0985818,0.0983455,0.0980364,0.0976561,0.0972063,0.0966894,0.0961076,0.0954639,0.0947612,0.0940031,0.0931932,0.0923358,0.0914354,0.0904969,0.0895258,0.0885277,0.0875088,0.0864759,0.085436,0.0843964,0.0833653,0.0823508,0.0813615,0.0804066,0.0794953,0.0786371,0.0778417,0.077119,0.0764789,0.075931,0.075485,0.0751502,0.0749356,0.0748492,0.0748989,0.0750912,0.0754318,0.075925,0.0765738,0.0773795,0.0783415,0.0794571,0.0807216,0.0821275,0.0836649,0.0853209,0.0870795,0.0889216,0.0908248,0.0927632,0.0947072,0.0966238,0.0984765,0.100225,0.101826,0.103233,0.104395,0.105262,0.105778,0.105888,0.105536,0.104637,0.103123,0.101234
0.115043,0.114394,0.113588,0.112278,0.110597,0.108604,0.106357,0.103914,0.101328,0.0986489,0.0959235,0.0931948,0.0905015,0.0878782,0.0853554,0.0829592,0.0807116,0.0786308,0.0767307,0.0750218,0.0735111,0.0722025,0.0710968,0.0701923,0.0694849,0.0689686,0.0686353,0.0684758,0.0684795,0.0686349,0.0689297,0.0693513,0.0698866,0.0705227,0.0712464,0.072045,0.072906,0.0738172,0.0747672,0.0757449,0.0767399,0.0777425,0.0787436,0.0797348,0.0807084,0.0816572,0.0825749,0.0834556,0.0842942,0.0850859,0.0858267,0.086513,0.0871417,0.0877101,0.088216,0.0886574,0.0890329,0.0893414,0.0895819,0.089754,0.0898575,0.0898923,0.0898589,0.0897578,0.0895898,0.0893561,0.0890581,0.0886974,0.0882761,0.0877963,0.0872606,0.086672,0.0860335,0.0853488,0.0846218,0.0838567,0.0830584,0.0822318,0.0813826,0.0805166,0.0796404,0.0787606,0.0778847,0.0770202,0.0761754,0.0753587,0.0745791,0.0738458,0.0731683,0.0725564,0.0720201,0.0715693,0.0712142,0.0709646,0.0708304,0.0708208,0.070945,0.0712112,0.071627,0.072199,0.0729328,0.0738326,0.0749009,0.0761389,0.0775456,0.079118,0.0808506,0.0827358,0.0847627,0.086918,0.089185,0.0915441,0.0939721,0.0964424,0.0989251,0.101387,0.10379,0.106094,0.108257,0.11023,0.111966,0.113411,0.114513,0.115217,0.115459,0.11517,0.114471,0.112066
0.127115,0.126103,0.124432,0.122338,0.11989,0.117158,0.114195,0.111058,0.107798,0.104465,0.101106,0.0977628,0.0944737,0.0912733,0.0881914,0.0852542,0.0824834,0.0798969,0.0775084,0.0753284,0.0733636,0.0716176,0.070091,0.0687818,0.0676857,0.0667961,0.0661048,0.0656021,0.065277,0.0651174,0.0651109,0.0652441,0.0655037,0.0658761,0.0663478,0.0669057,0.0675368,0.0682286,0.0689692,0.0697472,0.0705519,0.0713733,0.072202,0.0730294,0.0738475,0.0746491,0.0754275,0.0761768,0.0768917,0.0775674,0.0781998,0.0787852,0.0793205,0.0798029,0.0802302,0.0806006,0.0809124,0.0811646,0.0813564,0.0814873,0.0815571,0.0815659,0.081514,0.0814021,0.0812312,0.0810023,0.0807171,0.0803772,0.0799846,0.0795418,0.0790514,0.0785163,0.07794,0.077326,0.0766784,0.0760017,0.0753008,0.0745809,0.0738477,0.0731075,0.0723667,0.0716325,0.0709124,0.0702143,0.0695466,0.0689181,0.0683379,0.0678157,0.0673611,0.0669842,0.0666952,0.0665045,0.0664222,0.0664586,0.0666237,0.0669269,0.0673775,0.0679838,0.0687534,0.0696932,0.0708084,0.0721033,0.0735803,0.0752402,0.0770819,0.079102,0.0812948,0.0836518,0.0861621,0.0888117,0.0915833,0.0944567,0.0974081,0.100411,0.103433,0.106442,0.109401,0.112267,0.114997,0.117546,0.119862,0.121896,0.123592,0.124897,0.125762,0.126108,0.125901,0.125429
0.140367,0.138078,0.135618,0.132728,0.129505,0.126016,0.122319,0.11847,0.114521,0.110521,0.106515,0.102547,0.0986531,0.0948682,0.091222,0.0877401,0.084444,0.0813514,0.0784758,0.0758273,0.0734123,0.0712342,0.0692931,0.0675867,0.0661102,0.0648567,0.0638174,0.0629821,0.0623392,0.0618764,0.0615805,0.0614377,0.061434,0.0615555,0.0617882,0.0621182,0.0625323,0.0630176,0.0635616,0.0641526,0.0647795,0.065432,0.0661005,0.0667759,0.0674502,0.0681157,0.0687658,0.0693944,0.0699959,0.0705655,0.071099,0.0715926,0.0720431,0.0724478,0.0728043,0.0731108,0.0733658,0.0735681,0.073717,0.0738119,0.0738528,0.0738397,0.0737731,0.0736536,0.0734823,0.0732603,0.0729893,0.072671,0.0723075,0.0719013,0.0714552,0.0709723,0.0704559,0.0699099,0.0693385,0.0687463,0.0681384,0.0675201,0.0668975,0.0662768,0.0656649,0.0650691,0.0644972,0.0639573,0.0634582,0.0630088,0.0626187,0.0622977,0.0620559,0.0619035,0.0618513,0.0619096,0.0620891,0.0624003,0.0628533,0.063458,0.0642236,0.0651588,0.0662713,0.0675679,0.069054,0.0707338,0.0726098,0.0746825,0.0769506,0.0794105,0.0820562,0.0848789,0.0878672,0.0910066,0.0942794,0.0976648,0.101139,0.104673,0.108237,0.111796,0.115313,0.118745,0.122049,0.125178,0.128082,0.13071,0.133008,0.134923,0.136392,0.137372,0.137643,0.137602