-0,-0,-0,-0,-0,-0,-0,-0,-0,-0,-0,-0,-0,-0,-0,-0,-0,-0,-0,-0,-0,-0,-0,-0,-0,-0,-0,-0,-0,-0,-0,-0,-0,-0,-0,-0,-0,-0,-0,-0,-0,-0,-0,-0,-0,-0,-0,-0,-0,-0,-0,-0,-0,-0,-0,-0,-0,-0,-0,-0,-0,-0,-0,-0,-0,-0,-0,-0,-0,-0,-0,-0,-0,-0,-0,-0,-0,-0,-0,-0,-0,-0,-0,-0,-0,-0,-0,-0,-0,-0,-0,-0,-0,-0,-0,-0,-0,-0,-0,-0,-0,-0,-0,-0,-0,-0,-0,-0,-0,-0,-0,-0,-0,-0,-0,-0,-0,-0,-0,-0,-0,-0,-0,-0,-0,-0,-0,-0
-0,2.80345e-08,1.05423e-07,1.99982e-07,2.86226e-07,3.47729e-07,3.7469e-07,3.61643e-07,3.05915e-07,2.06649e-07,6.41803e-08,-1.20359e-07,-3.4531e-07,-6.08672e-07,-9.08227e-07,-1.24163e-06,-1.6065e-06,-2.00041e-06,-2.42098e-06,-2.86589e-06,-3.33286e-06,-3.81971e-06,-4.32434e-06,-4.84473e-06,-5.37897e-06,-5.92523e-06,-6.48175e-06,-7.04687e-06,-7.61901e-06,-8.19664e-06,-8.77832e-06,-9.36265e-06,-9.94829e-06,-1.05339e-05,-1.11183e-05,-1.17002e-05,-1.22784e-05,-1.28517e-05,-1.3419e-05,-1.3979e-05,-1.45306e-05,-1.50727e-05,-1.56042e-05,-1.61237e-05,-1.66302e-05,-1.71226e-05,-1.75996e-05,-1.806e-05,-1.85027e-05,-1.89265e-05,-1.93301e-05,-1.97125e-05,-2.00724e-05,-2.04087e-05,-2.07202e-05,-2.10058e-05,-2.12644e-05,-2.14949e-05,-2.16964e-05,-2.18677e-05,-2.20081e-05,-2.21166e-05,-2.21925e-05,-2.2235e-05,-2.22434e-05,-2.22173e-05,-2.21562e-05,-2.20598e-05,-2.19277e-05,-2.176e-05,-2.15565e-05,-2.13175e-05,-2.10433e-05,-2.07342e-05,-2.03907e-05,-2.00137e-05,-1.9604e-05,-1.91625e-05,-1.86904e-05,-1.81891e-05,-1.76599e-05,-1.71044e-05,-1.65244e-05,-1.59218e-05,-1.52986e-05,-1.46568e-05,-1.39987e-05,-1.33267e-05,-1.26432e-05,-1.19507e-05,-1.12519e-05,-1.05493e-05,-9.84579e-06,-9.14401e-06,-8.44675e-06,-7.7568e-06,-7.07693e-06,-6.40989e-06,-5.75838e-06,-5.12505e-06,-4.51251e-06,-3.92325e-06,-3.35967e-06,-2.82408e-06,-2.31862e-06,-1.84533e-06,-1.40605e-06,-1.00248e-06,-6.36104e-07,-3.08206e-07,-1.98417e-08,2.28185e-07,4.35347e-07,6.01424e-07,7.26543e-07,8.11227e-07,8.56458e-07,8.63762e-07,8.35327e-07,7.74157e-07,6.84299e-07,5.71158e-07,4.41948e-07,3.06324e-07,1.77186e-07,7.13091e-08,8.14752e-09,-0
-0,1.05515e-07,3.3514e-07,5.97731e-07,8.21448e-07,9.55952e-07,9.68345e-07,8.38523e-07,5.55461e-07,1.14491e-07,-4.84593e-07,-1.23888e-06,-2.14331e-06,-3.1913e-06,-4.37532e-06,-5.6872e-06,-7.11838e-06,-8.66019e-06,-1.03039e-05,-1.2041e-05,-1.38629e-05,-1.57616e-05,-1.7729e-05,-1.97576e-05,-2.18399e-05,-2.39691e-05,-2.61383e-05,-2.83411e-05,-3.05713e-05,-3.28231e-05,-3.50906e-05,-3.73685e-05,-3.96515e-05,-4.19344e-05,-4.42122e-05,-4.648e-05,-4.87331e-05,-5.09668e-05,-5.31765e-05,-5.53575e-05,-5.75052e-05,-5.96151e-05,-6.16827e-05,-6.37034e-05,-6.56725e-05,-6.75857e-05,-6.94381e-05,-7.12253e-05,-7.29427e-05,-7.45856e-05,-7.61494e-05,-7.76297e-05,-7.90219e-05,-8.03214e-05,-8.1524e-05,-8.26253e-05,-8.36211e-05,-8.45075e-05,-8.52804e-05,-8.59362e-05,-8.64714e-05,-8.68828e-05,-8.71674e-05,-8.73226e-05,-8.73458e-05,-8.72353e-05,-8.69893e-05,-8.66065e-05,-8.60864e-05,-8.54283e-05,-8.46327e-05,-8.37e-05,-8.26314e-05,-8.14286e-05,-8.00938e-05,-7.86298e-05,-7.704e-05,-7.53283e-05,-7.3499e-05,-7.15574e-05,-6.95088e-05,-6.73596e-05,-6.51163e-05,-6.27862e-05,-6.03768e-05,-5.78964e-05,-5.53535e-05,-5.2757e-05,-5.01163e-05,-4.74411e-05,-4.47412e-05,-4.20268e-05,-3.93083e-05,-3.6596e-05,-3.39007e-05,-3.12328e-05,-2.86028e-05,-2.60213e-05,-2.34984e-05,-2.10444e-05,-1.8669e-05,-1.63816e-05,-1.41915e-05,-1.21074e-05,-1.01372e-05,-8.28879e-06,-6.56902e-06,-4.98423e-06,-3.53997e-06,-2.24097e-06,-1.09108e-06,-9.31481e-08,7.51073e-07,1.44103e-06,1.97752e-06,2.36292e-06,2.60133e-06,2.69899e-06,2.66458e-06,2.50978e-06,2.24998e-06,1.90514e-06,1.50098e-06,1.07034e-06,6.54495e-07,3.03327e-07,7.1166e-08,-0
-0,2.0051e-07,5.98705e-07,1.02655e-06,1.35515e-06,1.49155e-06,1.3723e-06,9.56686e-07,2.21034e-07,-8.45829e-07,-2.24593e-06,-3.97468e-06,-6.02274e-06,-8.37737e-06,-1.10235e-05,-1.39446e-05,-1.71231e-05,-2.05409e-05,-2.41797e-05,-2.80214e-05,-3.20481e-05,-3.62422e-05,-4.05868e-05,-4.50653e-05,-4.96619e-05,-5.43612e-05,-5.91487e-05,-6.40101e-05,-6.89319e-05,-7.3901e-05,-7.89049e-05,-8.39315e-05,-8.8969e-05,-9.4006e-05,-9.90314e-05,-0.000104034,-0.000109004,-0.000113931,-0.000118803,-0.000123612,-0.000128346,-0.000132995,-0.00013755,-0.000142001,-0.000146336,-0.000150547,-0.000154622,-0.000158553,-0.000162328,-0.000165938,-0.000169372,-0.000172621,-0.000175675,-0.000178524,-0.000181158,-0.000183568,-0.000185746,-0.000187681,-0.000189366,-0.000190794,-0.000191955,-0.000192844,-0.000193454,-0.00019378,-0.000193816,-0.000193558,-0.000193003,-0.000192148,-0.000190992,-0.000189534,-0.000187775,-0.000185716,-0.00018336,-0.000180711,-0.000177773,-0.000174553,-0.000171058,-0.000167297,-0.000163279,-0.000159017,-0.000154521,-0.000149806,-0.000144885,-0.000139775,-0.000134493,-0.000129055,-0.000123481,-0.00011779,-0.000112002,-0.000106139,-0.000100221,-9.42711e-05,-8.83114e-05,-8.23646e-05,-7.64536e-05,-7.06011e-05,-6.48301e-05,-5.91631e-05,-5.36224e-05,-4.82298e-05,-4.30066e-05,-3.79733e-05,-3.31495e-05,-2.85539e-05,-2.42042e-05,-2.01168e-05,-1.63066e-05,-1.27872e-05,-9.57034e-06,-6.66613e-06,-4.0826e-06,-1.82562e-06,1.01333e-07,1.69745e-06,2.9649e-06,3.90923e-06,4.5398e-06,4.87045e-06,4.9202e-06,4.71425e-06,4.28522e-06,3.67457e-06,2.93447e-06,2.12963e-06,1.33876e-06,6.54187e-07,1.76726e-07,-0
-0,2.87709e-07,8.24624e-07,1.35795e-06,1.69647e-06,1.70059e-06,1.27271e-06,3.48306e-07,-1.11156e-06,-3.1264e-06,-5.70108e-06,-8.82957e-06,-1.24978e-05,-1.66858e-05,-2.13694e-05,-2.65218e-05,-3.21141e-05,-3.81162e-05,-4.44979e-05,-5.12286e-05,-5.8278e-05,-6.56165e-05,-7.32151e-05,-8.10456e-05,-8.90808e-05,-9.72942e-05,-0.000105661,-0.000114155,-0.000122755,-0.000131437,-0.000140179,-0.000148961,-0.00015776,-0.000166558,-0.000175335,-0.000184072,-0.000192751,-0.000201352,-0.000209857,-0.000218249,-0.00022651,-0.000234622,-0.000242566,-0.000250327,-0.000257884,-0.000265222,-0.000272323,-0.000279167,-0.000285739,-0.000292021,-0.000297994,-0.000303643,-0.000308949,-0.000313895,-0.000318467,-0.000322646,-0.000326418,-0.000329768,-0.000332681,-0.000335144,-0.000337144,-0.000338669,-0.000339708,-0.000340251,-0.000340291,-0.00033982,-0.000338833,-0.000337326,-0.000335295,-0.000332741,-0.000329664,-0.000326067,-0.000321955,-0.000317336,-0.000312217,-0.000306609,-0.000300526,-0.000293983,-0.000286996,-0.000279585,-0.000271771,-0.000263577,-0.000255029,-0.000246153,-0.000236978,-0.000227535,-0.000217855,-0.000207974,-0.000197924,-0.000187743,-0.000177467,-0.000167134,-0.000156782,-0.000146452,-0.000136181,-0.000126009,-0.000115976,-0.00010612,-9.6479e-05,-8.70909e-05,-7.79919e-05,-6.92172e-05,-6.08006e-05,-5.2774e-05,-4.51675e-05,-3.80092e-05,-3.13246e-05,-2.51367e-05,-1.94656e-05,-1.43282e-05,-9.73798e-06,-5.70467e-06,-2.23379e-06,6.73723e-07,3.02208e-06,4.82123e-06,6.08766e-06,6.84527e-06,7.12661e-06,6.9742e-06,6.4423e-06,5.5989e-06,4.52795e-06,3.33164e-06,2.132e-06,1.0708e-06,3.05672e-07,-0
-0,3.50656e-07,9.62185e-07,1.49782e-06,1.70343e-06,1.39198e-06,4.30696e-07,-1.26984e-06,-3.76491e-06,-7.08319e-06,-1.12329e-05,-1.62065e-05,-2.19849e-05,-2.854e-05,-3.58375e-05,-4.38385e-05,-5.25012e-05,-6.17816e-05,-7.1635e-05,-8.20162e-05,-9.28802e-05,-0.000104183,-0.00011588,-0.000127931,-0.000140292,-0.000152926,-0.000165792,-0.000178854,-0.000192076,-0.000205423,-0.000218861,-0.000232359,-0.000245883,-0.000259404,-0.000272891,-0.000286315,-0.000299647,-0.000312858,-0.000325921,-0.000338808,-0.00035149,-0.000363941,-0.000376133,-0.000388039,-0.000399631,-0.000410883,-0.000421767,-0.000432256,-0.000442324,-0.000451942,-0.000461086,-0.000469728,-0.000477842,-0.000485403,-0.000492386,-0.000498766,-0.000504519,-0.000509624,-0.000514058,-0.000517801,-0.000520834,-0.000523138,-0.000524699,-0.0005255,-0.000525531,-0.00052478,-0.00052324,-0.000520904,-0.000517769,-0.000513835,-0.000509103,-0.000503578,-0.000497267,-0.000490181,-0.000482335,-0.000473744,-0.000464428,-0.000454412,-0.000443719,-0.000432381,-0.000420429,-0.000407899,-0.000394828,-0.000381259,-0.000367235,-0.000352801,-0.000338008,-0.000322905,-0.000307546,-0.000291984,-0.000276277,-0.000260481,-0.000244655,-0.000228857,-0.000213148,-0.000197585,-0.00018223,-0.000167139,-0.000152372,-0.000137984,-0.00012403,-0.000110564,-9.76367e-05,-8.52959e-05,-7.35872e-05,-6.25527e-05,-5.22309e-05,-4.26563e-05,-3.38589e-05,-2.5864e-05,-1.86916e-05,-1.2356e-05,-6.86498e-06,-2.21956e-06,1.58708e-06,4.57033e-06,6.75527e-06,8.17787e-06,8.88661e-06,8.94418e-06,8.42971e-06,7.44111e-06,6.09777e-06,4.54315e-06,2.94689e-06,1.50564e-06,4.41869e-07,-0
-0,3.79262e-07,9.77227e-07,1.37976e-06,1.27301e-06,4.24312e-07,-1.33322e-06,-4.11341e-06,-7.9876e-06,-1.29935e-05,-1.91426e-05,-2.64255e-05,-3.48175e-05,-4.42817e-05,-5.47724e-05,-6.62375e-05,-7.86206e-05,-9.18623e-05,-0.000105902,-0.000120676,-0.000136125,-0.000152187,-0.000168801,-0.000185909,-0.000203454,-0.000221379,-0.000239632,-0.000258159,-0.000276909,-0.000295835,-0.000314888,-0.000334023,-0.000353194,-0.000372358,-0.000391472,-0.000410494,-0.000429383,-0.000448099,-0.000466601,-0.000484851,-0.000502808,-0.000520434,-0.00053769,-0.000554537,-0.000570936,-0.00058685,-0.000602239,-0.000617065,-0.000631291,-0.000644878,-0.000657788,-0.000669986,-0.000681433,-0.000692095,-0.000701936,-0.000710923,-0.000719021,-0.0007262,-0.00073243,-0.000737681,-0.000741927,-0.000745144,-0.000747309,-0.000748403,-0.000748408,-0.000747311,-0.0007451,-0.000741767,-0.000737309,-0.000731724,-0.000725015,-0.00071719,-0.00070826,-0.00069824,-0.000687149,-0.000675011,-0.000661854,-0.000647712,-0.00063262,-0.00061662,-0.000599758,-0.000582083,-0.000563648,-0.000544512,-0.000524736,-0.000504384,-0.000483525,-0.00046223,-0.000440573,-0.000418629,-0.000396478,-0.000374198,-0.000351873,-0.000329583,-0.000307412,-0.000285443,-0.000263758,-0.000242439,-0.000221567,-0.00020122,-0.000181475,-0.000162407,-0.000144085,-0.000126577,-0.000109947,-9.42531e-05,-7.95482e-05,-6.58806e-05,-5.32919e-05,-4.18169e-05,-3.14832e-05,-2.23102e-05,-1.43085e-05,-7.47911e-06,-1.81216e-06,2.71391e-06,6.13387e-06,8.49723e-06,9.87015e-06,1.03375e-05,1.00055e-05,9.0043e-06,7.49117e-06,5.65347e-06,3.71148e-06,1.92068e-06,5.73332e-07,-0
-0,3.67509e-07,8.47483e-07,9.58228e-07,3.32203e-07,-1.305e-06,-4.15168e-06,-8.34415e-06,-1.39686e-05,-2.10707e-05,-2.96642e-05,-3.97375e-05,-5.12592e-05,-6.41827e-05,-7.845e-05,-9.39946e-05,-0.000110744,-0.000128622,-0.00014755,-0.000167447,-0.000188233,-0.000209828,-0.000232153,-0.000255132,-0.000278688,-0.000302749,-0.000327242,-0.000352099,-0.000377252,-0.000402636,-0.000428187,-0.000453844,-0.000479546,-0.000505236,-0.000530856,-0.000556349,-0.000581661,-0.000606737,-0.000631523,-0.000655967,-0.000680014,-0.000703614,-0.000726714,-0.000749261,-0.000771204,-0.000792492,-0.000813073,-0.000832896,-0.000851909,-0.000870064,-0.000887309,-0.000903595,-0.000918874,-0.000933098,-0.000946221,-0.000958198,-0.000968984,-0.000978538,-0.000986821,-0.000993794,-0.000999424,-0.00100368,-0.00100652,-0.00100794,-0.0010079,-0.00100639,-0.0010034,-0.000998909,-0.000992917,-0.000985425,-0.000976435,-0.000965959,-0.00095401,-0.000940611,-0.000925786,-0.000909569,-0.000891996,-0.000873112,-0.000852965,-0.00083161,-0.000809107,-0.000785523,-0.000760929,-0.000735401,-0.000709021,-0.000681874,-0.00065405,-0.000625643,-0.000596752,-0.000567477,-0.000537921,-0.000508191,-0.000478393,-0.000448637,-0.000419032,-0.000389688,-0.000360712,-0.000332215,-0.000304301,-0.000277075,-0.000250638,-0.000225088,-0.000200517,-0.000177016,-0.000154667,-0.000133547,-0.000113726,-9.52684e-05,-7.82276e-05,-6.26498e-05,-4.85709e-05,-3.60163e-05,-2.49997e-05,-1.55221e-05,-7.57069e-06,-1.11711e-06,3.88383e-06,7.49615e-06,9.80484e-06,1.09183e-05,1.09713e-05,1.01276e-05,8.58405e-06,6.57358e-06,4.36904e-06,2.28695e-06,6.91512e-07,-0
-0,3.11925e-07,5.58899e-07,2.02972e-07,-1.16932e-06,-3.86861e-06,-8.12059e-06,-1.40811e-05,-2.18488e-05,-3.14757e-05,-4.29765e-05,-5.63358e-05,-7.15147e-05,-8.84557e-05,-0.000107087,-0.000127328,-0.000149087,-0.00017227,-0.00019678,-0.000222515,-0.000249376,-0.000277261,-0.000306073,-0.000335713,-0.000366086,-0.000397099,-0.000428661,-0.000460685,-0.000493083,-0.000525772,-0.000558673,-0.000591704,-0.00062479,-0.000657855,-0.000690826,-0.000723629,-0.000756195,-0.000788452,-0.000820332,-0.000851766,-0.000882685,-0.000913024,-0.000942713,-0.000971687,-0.000999879,-0.00102722,-0.00105365,-0.0010791,-0.0011035,-0.0011268,-0.00114892,-0.0011698,-0.00118938,-0.00120761,-0.00122442,-0.00123975,-0.00125355,-0.00126576,-0.00127635,-0.00128524,-0.00129242,-0.00129782,-0.00130143,-0.00130319,-0.0013031,-0.00130112,-0.00129723,-0.00129143,-0.00128371,-0.00127406,-0.0012625,-0.00124904,-0.0012337,-0.0012165,-0.00119748,-0.00117668,-0.00115414,-0.00112993,-0.00110411,-0.00107674,-0.00104791,-0.0010177,-0.000986189,-0.000953487,-0.000919694,-0.00088492,-0.000849278,-0.000812888,-0.000775874,-0.000738365,-0.000700491,-0.000662388,-0.00062419,-0.000586038,-0.000548068,-0.000510421,-0.000473234,-0.000436644,-0.000400787,-0.000365794,-0.000331794,-0.00029891,-0.000267261,-0.000236959,-0.00020811,-0.000180812,-0.000155153,-0.000131213,-0.000109062,-8.87564e-05,-7.0343e-05,-5.38532e-05,-3.93044e-05,-2.6698e-05,-1.60179e-05,-7.22913e-06,-2.75577e-07,4.92181e-06,8.46757e-06,1.04944e-05,1.11662e-05,1.06816e-05,9.27765e-06,7.23368e-06,4.87607e-06,2.58299e-06,7.90414e-07,-0
-0,2.10639e-07,1.0302e-07,-9.0533e-07,-3.26505e-06,-7.31638e-06,-1.33074e-05,-2.14096e-05,-3.1731e-05,-4.43275e-05,-5.92129e-05,-7.63662e-05,-9.57397e-05,-0.000117264,-0.000140852,-0.000166405,-0.000193816,-0.00022297,-0.000253747,-0.000286027,-0.000319687,-0.000354605,-0.000390661,-0.000427734,-0.000465708,-0.000504468,-0.000543903,-0.000583904,-0.000624364,-0.00066518,-0.000706252,-0.000747482,-0.000788773,-0.000830032,-0.000871168,-0.00091209,-0.000952708,-0.000992937,-0.00103269,-0.00107188,-0.00111042,-0.00114823,-0.00118523,-0.00122133,-0.00125644,-0.00129049,-0.0013234,-0.00135508,-0.00138545,-0.00141443,-0.00144194,-0.00146791,-0.00149225,-0.0015149,-0.00153577,-0.00155481,-0.00157193,-0.00158708,-0.0016002,-0.00161122,-0.00162009,-0.00162676,-0.00163119,-0.00163334,-0.00163317,-0.00163066,-0.00162578,-0.00161852,-0.00160888,-0.00159686,-0.00158246,-0.00156569,-0.0015466,-0.0015252,-0.00150155,-0.00147569,-0.00144768,-0.00141759,-0.00138551,-0.0013515,-0.00131569,-0.00127815,-0.00123902,-0.0011984,-0.00115643,-0.00111323,-0.00106896,-0.00102376,-0.000977771,-0.000931166,-0.000884101,-0.000836742,-0.000789257,-0.000741814,-0.000694587,-0.000647744,-0.000601457,-0.000555894,-0.000511221,-0.000467601,-0.00042519,-0.000384143,-0.000344604,-0.000306711,-0.000270595,-0.000236375,-0.000204162,-0.000174053,-0.000146132,-0.000120472,-9.71287e-05,-7.61406e-05,-5.75298e-05,-4.12984e-05,-2.74276e-05,-1.58755e-05,-6.57522e-06,5.67519e-07,5.67702e-06,8.91056e-06,1.04617e-05,1.05639e-05,9.4947e-06,7.58014e-06,5.19989e-06,2.79316e-06,8.65884e-07,-0
-0,6.27924e-08,-5.248e-07,-2.37821e-06,-5.97605e-06,-1.1681e-05,-1.97576e-05,-3.03885e-05,-4.36874e-05,-5.97112e-05,-7.84699e-05,-9.99354e-05,-0.000124049,-0.000150727,-0.000179867,-0.000211353,-0.000245056,-0.000280841,-0.000318566,-0.000358089,-0.000399263,-0.000441943,-0.000485985,-0.000531247,-0.000577587,-0.00062487,-0.00067296,-0.000721727,-0.000771042,-0.000820781,-0.000870822,-0.000921047,-0.000971339,-0.00102158,-0.00107167,-0.00112149,-0.00117093,-0.0012199,-0.00126827,-0.00131595,-0.00136284,-0.00140883,-0.00145383,-0.00149772,-0.00154041,-0.00158179,-0.00162178,-0.00166027,-0.00169716,-0.00173235,-0.00176576,-0.00179727,-0.00182681,-0.00185429,-0.0018796,-0.00190268,-0.00192343,-0.00194178,-0.00195765,-0.00197098,-0.0019817,-0.00198975,-0.00199508,-0.00199763,-0.00199738,-0.00199429,-0.00198833,-0.00197948,-0.00196775,-0.00195313,-0.00193563,-0.00191527,-0.00189209,-0.00186612,-0.00183742,-0.00180604,-0.00177207,-0.00173558,-0.00169668,-0.00165545,-0.00161202,-0.00156652,-0.00151907,-0.00146983,-0.00141895,-0.00136658,-0.0013129,-0.00125808,-0.00120232,-0.00114579,-0.0010887,-0.00103124,-0.000973606,-0.000916015,-0.000858666,-0.000801766,-0.000745518,-0.000690126,-0.000635789,-0.000582702,-0.000531055,-0.000481031,-0.000432805,-0.000386544,-0.000342402,-0.000300526,-0.000261046,-0.00022408,-0.000189731,-0.000158085,-0.000129208,-0.000103149,-7.99338e-05,-5.9567e-05,-4.20268e-05,-2.7265e-05,-1.52041e-05,-5.73471e-06,1.28702e-06,6.04289e-06,8.75591e-06,9.6943e-06,9.17577e-06,7.57245e-06,5.31644e-06,2.90633e-06,9.15103e-07,-0
-0,-1.31821e-07,-1.32663e-06,-4.22168e-06,-9.31437e-06,-1.69821e-05,-2.74999e-05,-4.10562e-05,-5.77663e-05,-7.76844e-05,-0.000100814,-0.000127118,-0.000156523,-0.000188932,-0.000224223,-0.000262261,-0.000302895,-0.000345969,-0.000391318,-0.000438774,-0.000488167,-0.000539328,-0.000592087,-0.000646278,-0.000701735,-0.000758297,-0.000815806,-0.000874108,-0.00093305,-0.000992486,-0.00105227,-0.00111226,-0.00117233,-0.00123233,-0.00129213,-0.0013516,-0.00141062,-0.00146905,-0.00152677,-0.00158366,-0.00163959,-0.00169445,-0.0017481,-0.00180043,-0.00185132,-0.00190065,-0.00194831,-0.00199416,-0.00203811,-0.00208002,-0.0021198,-0.00215732,-0.00219248,-0.00222517,-0.00225528,-0.00228272,-0.00230739,-0.0023292,-0.00234805,-0.00236388,-0.00237659,-0.00238613,-0.00239242,-0.00239542,-0.00239508,-0.00239136,-0.00238424,-0.00237368,-0.0023597,-0.00234228,-0.00232144,-0.00229721,-0.00226962,-0.00223873,-0.00220459,-0.00216727,-0.00212688,-0.00208349,-0.00203723,-0.00198822,-0.00193659,-0.00188249,-0.00182609,-0.00176755,-0.00170705,-0.00164478,-0.00158095,-0.00151577,-0.00144944,-0.00138219,-0.00131426,-0.00124588,-0.00117728,-0.0011087,-0.0010404,-0.000972601,-0.000905556,-0.000839501,-0.000774671,-0.000711296,-0.0006496,-0.0005898,-0.000532102,-0.000476701,-0.000423783,-0.000373518,-0.000326061,-0.000281551,-0.00024011,-0.000201839,-0.000166819,-0.000135106,-0.000106733,-8.17069e-05,-6.00036e-05,-4.15692e-05,-2.63162e-05,-1.41207e-05,-4.81946e-06,1.7932e-06,5.96931e-06,8.01115e-06,8.27589e-06,7.18064e-06,5.20838e-06,2.91475e-06,9.3621e-07,-0
-0,-3.72991e-07,-2.30276e-06,-6.43789e-06,-1.32854e-05,-2.32298e-05,-3.65501e-05,-5.3435e-05,-7.39968e-05,-9.82832e-05,-0.000126288,-0.000157961,-0.000193216,-0.000231934,-0.000273977,-0.000319187,-0.000367392,-0.00041841,-0.000472053,-0.000528126,-0.000586436,-0.000646786,-0.000708981,-0.000772828,-0.000838138,-0.000904722,-0.000972397,-0.00104098,-0.00111031,-0.00118019,-0.00125048,-0.00132099,-0.00139158,-0.00146207,-0.00153233,-0.00160219,-0.0016715,-0.00174011,-0.00180789,-0.00187467,-0.00194033,-0.00200471,-0.00206767,-0.00212907,-0.00218877,-0.00224663,-0.00230251,-0.00235628,-0.0024078,-0.00245693,-0.00250354,-0.00254751,-0.00258869,-0.00262698,-0.00266224,-0.00269437,-0.00272324,-0.00274876,-0.00277081,-0.00278931,-0.00280417,-0.00281531,-0.00282265,-0.00282614,-0.00282571,-0.00282133,-0.00281296,-0.00280059,-0.0027842,-0.00276379,-0.0027394,-0.00271103,-0.00267874,-0.00264259,-0.00260264,-0.00255899,-0.00251172,-0.00246097,-0.00240685,-0.00234952,-0.00228913,-0.00222584,-0.00215986,-0.00209137,-0.00202059,-0.00194773,-0.00187303,-0.00179673,-0.00171909,-0.00164036,-0.00156081,-0.00148071,-0.00140034,-0.00131997,-0.00123989,-0.00116038,-0.00108172,-0.00100418,-0.000928045,-0.000853574,-0.000781029,-0.000710662,-0.000642713,-0.00057741,-0.000514966,-0.000455581,-0.000399435,-0.000346691,-0.00029749,-0.00025195,-0.000210167,-0.000172208,-0.000138112,-0.000107889,-8.15144e-05,-5.89295e-05,-4.00372e-05,-2.46998e-05,-1.27356e-05,-3.91562e-06,2.04029e-06,5.46756e-06,6.76157e-06,6.38295e-06,4.86351e-06,2.81317e-06,9.2804e-07,-0
-0,-6.6024e-07,-3.45232e-06,-9.02624e-06,-1.78899e-05,-3.04272e-05,-4.69144e-05,-6.7535e-05,-9.23933e-05,-0.000121526,-0.000154915,-0.000192493,-0.000234156,-0.000279766,-0.000329164,-0.000382166,-0.000438578,-0.000498193,-0.000560795,-0.000626165,-0.000694081,-0.00076432,-0.00083666,-0.00091088,-0.000986764,-0.0010641,-0.00114267,-0.00122228,-0.00130272,-0.00138379,-0.00146531,-0.00154708,-0.00162892,-0.00171064,-0.00179207,-0.00187302,-0.00195334,-0.00203283,-0.00211134,-0.0021887,-0.00226473,-0.00233927,-0.00241217,-0.00248325,-0.00255235,-0.00261931,-0.00268398,-0.00274618,-0.00280578,-0.0028626,-0.00291651,-0.00296734,-0.00301496,-0.00305922,-0.00309997,-0.0031371,-0.00317046,-0.00319993,-0.0032254,-0.00324677,-0.00326392,-0.00327678,-0.00328525,-0.00328926,-0.00328876,-0.00328369,-0.00327402,-0.00325973,-0.0032408,-0.00321725,-0.00318908,-0.00315634,-0.00311907,-0.00307735,-0.00303124,-0.00298087,-0.00292632,-0.00286775,-0.0028053,-0.00273914,-0.00266944,-0.0025964,-0.00252024,-0.00244118,-0.00235947,-0.00227535,-0.00218909,-0.00210097,-0.00201129,-0.00192033,-0.0018284,-0.00173581,-0.00164288,-0.00154993,-0.00145728,-0.00136525,-0.00127416,-0.00118434,-0.00109609,-0.00100973,-0.000925542,-0.000843823,-0.000764849,-0.00068888,-0.000616163,-0.000546925,-0.000481376,-0.000419702,-0.000362066,-0.000308606,-0.000259432,-0.000214623,-0.000174227,-0.000138257,-0.00010669,-7.94627e-05,-5.64697e-05,-3.75604e-05,-2.25355e-05,-1.11439e-05,-3.07838e-06,2.0283e-06,4.60831e-06,5.16394e-06,4.27352e-06,2.59825e-06,8.8992e-07,-0
-0,-9.92927e-07,-4.77363e-06,-1.19842e-05,-2.31251e-05,-3.8572e-05,-5.85917e-05,-8.33568e-05,-0.000112959,-0.000147419,-0.000186703,-0.000230723,-0.000279355,-0.000332441,-0.000389794,-0.000451209,-0.000516463,-0.000585323,-0.000657546,-0.000732886,-0.000811091,-0.000891911,-0.000975095,-0.0010604,-0.00114757,-0.00123637,-0.00132656,-0.0014179,-0.00151018,-0.00160317,-0.00169664,-0.00179038,-0.00188418,-0.00197784,-0.00207114,-0.00216389,-0.00225589,-0.00234694,-0.00243685,-0.00252543,-0.00261248,-0.00269782,-0.00278126,-0.00286261,-0.00294169,-0.00301831,-0.00309229,-0.00316346,-0.00323162,-0.00329662,-0.00335826,-0.00341639,-0.00347083,-0.00352142,-0.00356801,-0.00361044,-0.00364857,-0.00368225,-0.00371136,-0.00373578,-0.00375538,-0.00377007,-0.00377976,-0.00378436,-0.0037838,-0.00377803,-0.00376702,-0.00375072,-0.00372914,-0.00370228,-0.00367015,-0.00363281,-0.00359031,-0.00354272,-0.00349014,-0.00343267,-0.00337046,-0.00330365,-0.00323241,-0.00315692,-0.0030774,-0.00299407,-0.00290716,-0.00281693,-0.00272366,-0.00262763,-0.00252914,-0.00242852,-0.00232608,-0.00222216,-0.00211711,-0.00201128,-0.00190502,-0.00179871,-0.0016927,-0.00158737,-0.00148307,-0.00138016,-0.00127901,-0.00117995,-0.00108334,-0.000989487,-0.000898713,-0.000811316,-0.000727575,-0.000647749,-0.000572077,-0.000500771,-0.000434018,-0.000371976,-0.000314772,-0.000262499,-0.000215213,-0.000172935,-0.000135641,-0.000103266,-7.56981e-05,-5.27739e-05,-3.42781e-05,-1.99387e-05,-9.4228e-06,-2.33281e-06,1.79848e-06,3.51296e-06,3.433e-06,2.26796e-06,8.21531e-07,-0
-0,-1.3703e-06,-6.26449e-06,-1.53081e-05,-2.89858e-05,-4.7658e-05,-7.15755e-05,-0.000100894,-0.000135686,-0.000175956,-0.000221645,-0.000272646,-0.00032881,-0.000389952,-0.000455863,-0.000526307,-0.000601036,-0.000679788,-0.00076229,-0.000848267,-0.000937438,-0.00102952,-0.00112424,-0.00122132,-0.00132048,-0.00142145,-0.00152396,-0.00162776,-0.00173258,-0.00183819,-0.00194432,-0.00205073,-0.0021572,-0.00226348,-0.00236935,-0.00247457,-0.00257893,-0.00268219,-0.00278416,-0.00288459,-0.00298329,-0.00308004,-0.00317462,-0.00326682,-0.00335644,-0.00344327,-0.0035271,-0.00360772,-0.00368495,-0.00375857,-0.00382839,-0.00389422,-0.00395588,-0.00401317,-0.00406593,-0.00411398,-0.00415716,-0.00419531,-0.00422828,-0.00425593,-0.00427815,-0.00429481,-0.00430581,-0.00431106,-0.00431048,-0.00430401,-0.0042916,-0.00427324,-0.0042489,-0.00421859,-0.00418234,-0.0041402,-0.00409222,-0.00403849,-0.00397912,-0.00391423,-0.00384398,-0.00376852,-0.00368806,-0.00360279,-0.00351295,-0.00341879,-0.00332058,-0.00321861,-0.00311318,-0.00300461,-0.00289325,-0.00277944,-0.00266356,-0.00254597,-0.00242707,-0.00230726,-0.00218693,-0.00206649,-0.00194635,-0.00182692,-0.00170862,-0.00159184,-0.00147699,-0.00136446,-0.00125463,-0.00114786,-0.00104451,-0.000944919,-0.000849399,-0.000758243,-0.00067172,-0.000590072,-0.00051351,-0.000442215,-0.000376332,-0.000315968,-0.000261192,-0.00021203,-0.000168463,-0.000130424,-9.77933e-05,-7.03992e-05,-4.8011e-05,-3.03372e-05,-1.70207e-05,-7.63522e-06,-1.68049e-06,1.42282e-06,2.33858e-06,1.82126e-06,7.22791e-07,-0
-0,-1.79157e-06,-7.92234e-06,-1.8993e-05,-3.54651e-05,-5.76762e-05,-8.58549e-05,-0.000120134,-0.000160564,-0.000207122,-0.000259728,-0.000318247,-0.000382502,-0.000452283,-0.00052735,-0.00060744,-0.000692273,-0.000781557,-0.000874991,-0.000972267,-0.00107308,-0.0011771,-0.00128404,-0.00139358,-0.00150542,-0.00161925,-0.00173478,-0.00185173,-0.0019698,-0.00208871,-0.00220819,-0.00232797,-0.00244779,-0.00256737,-0.00268647,-0.00280483,-0.00292221,-0.00303834,-0.00315299,-0.00326592,-0.00337688,-0.00348563,-0.00359194,-0.00369556,-0.00379628,-0.00389385,-0.00398804,-0.00407863,-0.00416539,-0.00424809,-0.00432653,-0.00440048,-0.00446974,-0.0045341,-0.00459337,-0.00464735,-0.00469586,-0.00473872,-0.00477578,-0.00480688,-0.00483188,-0.00485064,-0.00486306,-0.00486904,-0.00486848,-0.00486132,-0.00484751,-0.00482702,-0.00479984,-0.00476597,-0.00472544,-0.0046783,-0.00462463,-0.00456451,-0.00449807,-0.00442544,-0.0043468,-0.00426232,-0.00417221,-0.00407672,-0.00397609,-0.00387061,-0.00376056,-0.00364629,-0.00352811,-0.0034064,-0.00328152,-0.00315388,-0.00302387,-0.00289192,-0.00275846,-0.00262393,-0.00248878,-0.00235346,-0.00221842,-0.00208413,-0.00195104,-0.0018196,-0.00169026,-0.00156346,-0.00143962,-0.00131915,-0.00120245,-0.00108989,-0.00098183,-0.000878594,-0.000780485,-0.000687774,-0.000600702,-0.00051947,-0.000444246,-0.000375153,-0.000312273,-0.000255641,-0.000205241,-0.000161007,-0.000122816,-9.04859e-05,-6.37735e-05,-4.23692e-05,-2.58936e-05,-1.38935e-05,-5.83755e-06,-1.11118e-06,9.8835e-07,1.25774e-06,5.93775e-07,-0
-0,-2.2559e-06,-9.74444e-06,-2.30338e-05,-4.25548e-05,-6.86157e-05,-0.000101416,-0.000141061,-0.000187572,-0.000240898,-0.000300928,-0.0003675,-0.000440405,-0.000519404,-0.000604223,-0.00069457,-0.000790134,-0.000890589,-0.000995602,-0.00110483,-0.00121794,-0.00133458,-0.00145442,-0.0015771,-0.0017023,-0.00182968,-0.00195892,-0.00208969,-0.00222169,-0.00235459,-0.00248811,-0.00262193,-0.00275576,-0.00288932,-0.00302232,-0.00315447,-0.00328551,-0.00341514,-0.00354311,-0.00366914,-0.00379296,-0.00391431,-0.00403292,-0.00414853,-0.00426089,-0.00436973,-0.0044748,-0.00457584,-0.00467261,-0.00476486,-0.00485234,-0.00493482,-0.00501207,-0.00508387,-0.00514998,-0.0052102,-0.00526434,-0.00531218,-0.00535357,-0.00538831,-0.00541627,-0.00543729,-0.00545125,-0.00545804,-0.00545756,-0.00544974,-0.00543452,-0.00541187,-0.00538178,-0.00534424,-0.0052993,-0.005247,-0.00518744,-0.0051207,-0.00504692,-0.00496626,-0.00487889,-0.00478502,-0.00468489,-0.00457874,-0.00446687,-0.00434958,-0.00422719,-0.00410007,-0.00396858,-0.00383313,-0.00369412,-0.003552,-0.00340721,-0.00326021,-0.00311148,-0.00296152,-0.0028108,-0.00265984,-0.00250915,-0.00235922,-0.00221056,-0.00206367,-0.00191906,-0.00177719,-0.00163855,-0.00150359,-0.00137275,-0.00124644,-0.00112507,-0.00100899,-0.000898549,-0.000794045,-0.000695747,-0.000603884,-0.000518644,-0.000440171,-0.00036856,-0.000303857,-0.000246053,-0.000195082,-0.00015082,-0.000113077,-8.15992e-05,-5.60598e-05,-3.60591e-05,-2.11191e-05,-1.06792e-05,-4.09219e-06,-6.18697e-07,5.77379e-07,4.34646e-07,-0
-0,-2.76244e-06,-1.17279e-05,-2.74247e-05,-5.02459e-05,-8.0464e-05,-0.000118244,-0.000163656,-0.000216688,-0.000277257,-0.000345217,-0.000420373,-0.000502484,-0.000591274,-0.00068644,-0.000787653,-0.000894568,-0.00100683,-0.00112406,-0.0012459,-0.00137197,-0.00150189,-0.00163528,-0.00177178,-0.00191101,-0.00205262,-0.00219623,-0.00234152,-0.00248811,-0.00263569,-0.0027839,-0.00293243,-0.00308095,-0.00322913,-0.00337668,-0.00352327,-0.00366859,-0.00381236,-0.00395426,-0.00409399,-0.00423127,-0.0043658,-0.00449729,-0.00462544,-0.00474998,-0.00487061,-0.00498706,-0.00509905,-0.0052063,-0.00530854,-0.00540551,-0.00549693,-0.00558257,-0.00566216,-0.00573546,-0.00580225,-0.0058623,-0.0059154,-0.00596135,-0.00599997,-0.00603107,-0.00605451,-0.00607014,-0.00607785,-0.00607752,-0.00606908,-0.00605247,-0.00602764,-0.00599458,-0.0059533,-0.00590383,-0.00584623,-0.00578059,-0.00570702,-0.00562567,-0.00553669,-0.00544029,-0.0053367,-0.00522616,-0.00510896,-0.00498541,-0.00485584,-0.00472061,-0.00458012,-0.00443477,-0.004285,-0.00413126,-0.00397402,-0.00381379,-0.00365107,-0.00348638,-0.00332026,-0.00315326,-0.00298592,-0.0028188,-0.00265245,-0.00248744,-0.00232432,-0.00216363,-0.0020059,-0.00185166,-0.0017014,-0.00155563,-0.00141479,-0.00127932,-0.00114963,-0.0010261,-0.000909054,-0.000798801,-0.000695597,-0.000599654,-0.000511135,-0.000430153,-0.000356766,-0.000290972,-0.000232711,-0.000181856,-0.000138213,-0.000101518,-7.14309e-05,-4.75322e-05,-2.93213e-05,-1.62107e-05,-7.52243e-06,-2.48308e-06,-2.19633e-07,2.45606e-07,-0