0,0,0,0,0,0,0,0,0,0,0,0,0,0,0,0,0,0,0,0,0,0,0,0,0,0,0,0,0,0,0,0,0,0,0,0,0,0,0,0,0,0,0,0,0,0,0,0,0,0,0,0,0,0,0,0,0,0,0,0,0,0,0,0,0,0,0,0,0,0,0,0,0,0,0,0,0,0,0,0,0,0,0,0,0,0,0,0,0,0,0,0,0,0,0,0,0,0,0,0,0,0,0,0,0,0,0,0,0,0,0,0,0,0,0,0,0,0,0,0,0,0,0,0,0,0,0,0
0,6.70022e-06,2.12814e-05,3.79559e-05,5.21619e-05,6.0703e-05,6.14899e-05,5.32462e-05,3.52717e-05,7.2702e-06,-3.07716e-05,-7.86691e-05,-0.0001361,-0.000202648,-0.000277833,-0.000361137,-0.000452017,-0.000549922,-0.000654299,-0.000764602,-0.000880296,-0.00100086,-0.00112579,-0.00125461,-0.00138684,-0.00152204,-0.00165978,-0.00179966,-0.00194128,-0.00208427,-0.00222826,-0.0023729,-0.00251787,-0.00266283,-0.00280747,-0.00295148,-0.00309455,-0.00323639,-0.00337671,-0.0035152,-0.00365158,-0.00378556,-0.00391685,-0.00404516,-0.00417021,-0.00429169,-0.00440932,-0.00452281,-0.00463186,-0.00473618,-0.00483549,-0.00492949,-0.00501789,-0.00510041,-0.00517677,-0.00524671,-0.00530994,-0.00536622,-0.0054153,-0.00545695,-0.00549094,-0.00551706,-0.00553513,-0.00554498,-0.00554646,-0.00553944,-0.00552382,-0.00549952,-0.00546648,-0.0054247,-0.00537417,-0.00531495,-0.00524709,-0.00517071,-0.00508596,-0.004993,-0.00489204,-0.00478334,-0.00466719,-0.00454389,-0.00441381,-0.00427733,-0.00413489,-0.00398692,-0.00383393,-0.00367642,-0.00351495,-0.00335007,-0.00318239,-0.00301251,-0.00284106,-0.0026687,-0.00249607,-0.00232385,-0.00215269,-0.00198328,-0.00181628,-0.00165235,-0.00149215,-0.00133632,-0.00118548,-0.00104023,-0.000901163,-0.000768817,-0.000643714,-0.000526338,-0.000417133,-0.000316498,-0.000224788,-0.000142302,-6.92838e-05,-5.9149e-06,4.76931e-05,9.15052e-05,0.000125573,0.000150045,0.000165185,0.000171386,0.000169201,0.000159371,0.000142874,0.000120976,9.53119e-05,6.79663e-05,4.15604e-05,1.92613e-05,4.51904e-06,0
0,1.09522e-05,3.13234e-05,5.24873e-05,6.78767e-05,7.26326e-05,6.33479e-05,3.77853e-05,-5.38997e-06,-6.68324e-05,-0.000146692,-0.00024475,-0.000360517,-0.000493312,-0.000642322,-0.00080664,-0.000985304,-0.00117732,-0.00138168,-0.00159737,-0.00182342,-0.00205883,-0.00230266,-0.002554,-0.00281196,-0.00307569,-0.00334435,-0.00361716,-0.00389337,-0.00417223,-0.00445304,-0.00473512,-0.00501782,-0.00530048,-0.00558248,-0.00586322,-0.0061421,-0.00641852,-0.0066919,-0.00696167,-0.00722725,-0.00748807,-0.00774357,-0.00799318,-0.00823633,-0.00847244,-0.00870096,-0.00892131,-0.00913292,-0.00933524,-0.00952769,-0.00970972,-0.00988078,-0.0100403,-0.0101878,-0.0103227,-0.0104446,-0.0105528,-0.010647,-0.0107268,-0.0107916,-0.0108412,-0.0108751,-0.0108931,-0.0108949,-0.0108801,-0.0108488,-0.0108006,-0.0107356,-0.0106537,-0.0105549,-0.0104393,-0.0103071,-0.0101585,-0.00999375,-0.00981322,-0.00961731,-0.00940652,-0.0091814,-0.00894255,-0.00869068,-0.00842653,-0.00815091,-0.0078647,-0.00756883,-0.00726429,-0.00695212,-0.00663341,-0.0063093,-0.00598094,-0.00564954,-0.00531633,-0.00498257,-0.00464951,-0.00431843,-0.00399061,-0.00366733,-0.00334983,-0.00303937,-0.00273715,-0.00244438,-0.00216218,-0.00189165,-0.00163385,-0.00138974,-0.00116024,-0.000946186,-0.000748329,-0.000567324,-0.000403728,-0.000257985,-0.000130417,-2.12099e-05,6.95976e-05,0.000142136,0.000196723,0.000233892,0.000254424,0.000259389,0.000250196,0.000228658,0.000197067,0.000158275,0.00011578,7.37598e-05,3.70127e-05,1.07047e-05,0
0,1.15693e-05,3.10823e-05,4.82739e-05,5.55637e-05,4.72846e-05,1.9327e-05,-3.11288e-05,-0.000105856,-0.000205797,-0.000331247,-0.000482009,-0.000657509,-0.000856899,-0.00107913,-0.001323,-0.00158723,-0.00187046,-0.00217132,-0.00248841,-0.00282036,-0.00316579,-0.00352337,-0.00389179,-0.00426979,-0.00465615,-0.00504967,-0.00544921,-0.00585368,-0.00626199,-0.00667313,-0.00708609,-0.0074999,-0.00791362,-0.00832633,-0.00873712,-0.00914511,-0.00954943,-0.00994922,-0.0103436,-0.0107318,-0.0111129,-0.0114861,-0.0118506,-0.0122055,-0.0125499,-0.0128832,-0.0132043,-0.0135126,-0.0138071,-0.0140872,-0.0143518,-0.0146004,-0.014832,-0.0150459,-0.0152413,-0.0154176,-0.0155741,-0.01571,-0.0158247,-0.0159177,-0.0159884,-0.0160363,-0.016061,-0.016062,-0.0160392,-0.0159921,-0.0159207,-0.0158247,-0.0157043,-0.0155595,-0.0153903,-0.0151971,-0.0149801,-0.0147398,-0.0144767,-0.0141914,-0.0138846,-0.0135571,-0.0132098,-0.0128436,-0.0124598,-0.0120594,-0.0116438,-0.0112142,-0.010772,-0.0103189,-0.00985625,-0.00938579,-0.00890915,-0.00842806,-0.00794429,-0.00745961,-0.00697584,-0.0064948,-0.00601831,-0.0055482,-0.00508626,-0.00463427,-0.00419395,-0.00376701,-0.00335506,-0.00295967,-0.00258233,-0.00222442,-0.00188725,-0.00157198,-0.00127968,-0.00101128,-0.000767538,-0.000549078,-0.000356332,-0.000189539,-4.87238e-05,6.63293e-05,0.000156103,0.000221381,0.000263289,0.000283339,0.000283491,0.000266213,0.000234554,0.000192213,0.000143593,9.38214e-05,4.87345e-05,1.48912e-05,0
0,9.53428e-06,2.3081e-05,2.99256e-05,2.21159e-05,-6.32268e-06,-5.97915e-05,-0.000141385,-0.000253108,-0.000396072,-0.00057067,-0.00077672,-0.0010136,-0.00128033,-0.00157569,-0.00189826,-0.00224651,-0.00261879,-0.00301341,-0.00342867,-0.00386284,-0.00431423,-0.00478114,-0.00526194,-0.00575503,-0.00625883,-0.00677184,-0.00729259,-0.00781965,-0.00835165,-0.00888724,-0.00942512,-0.00996405,-0.0105028,-0.0110401,-0.0115748,-0.0121058,-0.0126319,-0.013152,-0.013665,-0.0141697,-0.0146651,-0.01515,-0.0156234,-0.0160842,-0.0165313,-0.0169637,-0.0173802,-0.0177797,-0.0181613,-0.0185238,-0.0188662,-0.0191876,-0.0194868,-0.0197629,-0.020015,-0.0202421,-0.0204434,-0.0206179,-0.020765,-0.0208838,-0.0209737,-0.021034,-0.0210642,-0.0210639,-0.0210326,-0.02097,-0.020876,-0.0207503,-0.0205931,-0.0204043,-0.0201842,-0.0199331,-0.0196514,-0.0193397,-0.0189987,-0.018629,-0.0182318,-0.0178079,-0.0173586,-0.0168852,-0.0163889,-0.0158714,-0.0153342,-0.0147791,-0.0142079,-0.0136225,-0.0130248,-0.012417,-0.0118012,-0.0111796,-0.0105543,-0.00992781,-0.00930228,-0.00868007,-0.0080635,-0.00745487,-0.00685648,-0.00627058,-0.00569937,-0.005145,-0.00460952,-0.00409494,-0.00360311,-0.00313582,-0.00269468,-0.00228119,-0.00189669,-0.00154232,-0.00121906,-0.000927673,-0.000668678,-0.000442361,-0.00024873,-8.74915e-05,4.19804e-05,0.000140682,0.000210022,0.000251867,0.0002686,0.000263175,0.000239175,0.000200869,0.000153259,0.000102116,5.40673e-05,1.68366e-05,0
0,5.81363e-06,9.69025e-06,1.38477e-06,-2.68893e-05,-8.10437e-05,-0.000165477,-0.000283319,-0.000436629,-0.000626564,-0.000853534,-0.00111734,-0.0014173,-0.00175234,-0.00212109,-0.00252195,-0.00295317,-0.00341288,-0.00389913,-0.00440994,-0.0049433,-0.00549722,-0.00606971,-0.00665884,-0.0072627,-0.00787941,-0.00850716,-0.0091442,-0.00978879,-0.0104393,-0.011094,-0.0117515,-0.01241,-0.0130683,-0.0137246,-0.0143778,-0.0150262,-0.0156684,-0.0163033,-0.0169292,-0.0175449,-0.0181491,-0.0187403,-0.0193174,-0.0198788,-0.0204234,-0.0209497,-0.0214565,-0.0219425,-0.0224064,-0.0228469,-0.0232628,-0.0236528,-0.0240157,-0.0243503,-0.0246556,-0.0249303,-0.0251734,-0.025384,-0.0255611,-0.0257037,-0.0258112,-0.0258827,-0.0259176,-0.0259154,-0.0258756,-0.0257979,-0.025682,-0.0255279,-0.0253354,-0.0251048,-0.0248363,-0.0245303,-0.0241874,-0.0238082,-0.0233935,-0.0229443,-0.0224618,-0.0219471,-0.0214017,-0.0208272,-0.0202251,-0.0195973,-0.0189458,-0.0182726,-0.01758,-0.01687,-0.0161453,-0.0154082,-0.0146613,-0.0139072,-0.0131486,-0.0123882,-0.0116288,-0.0108732,-0.010124,-0.00938416,-0.00865628,-0.00794308,-0.0072472,-0.0065712,-0.00591753,-0.00528855,-0.00468652,-0.00411351,-0.00357148,-0.0030622,-0.00258724,-0.00214797,-0.00174553,-0.00138082,-0.00105445,-0.000766747,-0.000517705,-0.000306974,-0.000133815,2.93425e-06,0.000104899,0.000174215,0.00021357,0.000226263,0.000216243,0.000188164,0.000147436,0.000100297,5.39674e-05,1.69964e-05,0
0,1.07014e-06,-7.28356e-06,-3.42643e-05,-8.70731e-05,-0.000171258,-0.000290981,-0.000449219,-0.000647931,-0.000888205,-0.00117039,-0.00149422,-0.00185892,-0.00226331,-0.00270589,-0.00318491,-0.00369843,-0.00424437,-0.00482058,-0.00542483,-0.00605487,-0.00670845,-0.00738333,-0.0080773,-0.00878816,-0.0095138,-0.0102521,-0.0110011,-0.0117587,-0.012523,-0.0132922,-0.0140643,-0.0148376,-0.0156103,-0.0163807,-0.0171472,-0.0179079,-0.0186613,-0.0194057,-0.0201396,-0.0208613,-0.0215693,-0.0222619,-0.0229376,-0.0235949,-0.0242322,-0.0248479,-0.0254406,-0.0260087,-0.0265507,-0.0270652,-0.0275506,-0.0280056,-0.0284287,-0.0288186,-0.0291739,-0.0294935,-0.029776,-0.0300204,-0.0302256,-0.0303905,-0.0305142,-0.0305959,-0.0306349,-0.0306306,-0.0305825,-0.0304901,-0.0303533,-0.0301719,-0.029946,-0.0296756,-0.0293612,-0.0290032,-0.0286023,-0.0281592,-0.0276749,-0.0271506,-0.0265875,-0.0259871,-0.025351,-0.0246811,-0.0239792,-0.0232474,-0.022488,-0.0217034,-0.0208961,-0.0200687,-0.0192239,-0.0183646,-0.0174938,-0.0166144,-0.0157296,-0.0148424,-0.013956,-0.0130737,-0.0121985,-0.0113337,-0.0104823,-0.0096475,-0.00883229,-0.00803959,-0.00727224,-0.00653293,-0.00582424,-0.00514856,-0.00450813,-0.00390496,-0.00334087,-0.00281741,-0.0023359,-0.00189733,-0.00150243,-0.00115155,-0.000844714,-0.000581519,-0.000361153,-0.000182336,-4.32894e-05,5.83079e-05,0.000125358,0.000161388,0.000170592,0.000157879,0.000128932,9.03071e-05,4.96135e-05,1.58524e-05,0
0,-4.27589e-06,-2.65638e-05,-7.47258e-05,-0.000155088,-0.0002726,-0.000430998,-0.000632949,-0.000880184,-0.00117362,-0.00151345,-0.0018993,-0.00233027,-0.00280505,-0.003322,-0.00387923,-0.00447461,-0.00510592,-0.00577077,-0.00646675,-0.0071914,-0.00794222,-0.00871675,-0.00951253,-0.0103271,-0.0111582,-0.0120034,-0.0128604,-0.013727,-0.014601,-0.0154803,-0.0163628,-0.0172464,-0.0181291,-0.019009,-0.0198841,-0.0207525,-0.0216124,-0.0224619,-0.0232991,-0.0241222,-0.0249294,-0.025719,-0.026489,-0.0272378,-0.0279636,-0.0286646,-0.0293392,-0.0299855,-0.0306019,-0.0311867,-0.0317382,-0.0322549,-0.0327352,-0.0331775,-0.0335804,-0.0339425,-0.0342623,-0.0345387,-0.0347703,-0.0349561,-0.0350952,-0.0351865,-0.0352292,-0.0352228,-0.0351666,-0.0350603,-0.0349035,-0.0346962,-0.0344385,-0.0341304,-0.0337725,-0.0333653,-0.0329094,-0.0324059,-0.0318558,-0.0312604,-0.0306211,-0.0299397,-0.0292179,-0.0284578,-0.0276615,-0.0268313,-0.0259699,-0.0250799,-0.024164,-0.0232253,-0.0222668,-0.0212917,-0.0203032,-0.0193049,-0.0183,-0.0172922,-0.0162849,-0.0152816,-0.0142861,-0.0133017,-0.012332,-0.0113805,-0.0104504,-0.00954522,-0.00866795,-0.00782167,-0.00700923,-0.00623334,-0.00549646,-0.00480088,-0.0041486,-0.00354137,-0.00298066,-0.00246759,-0.00200298,-0.00158724,-0.0012204,-0.000902066,-0.000631383,-0.000407,-0.000227039,-8.90639e-05,9.96111e-06,7.37052e-05,0.000106511,0.000113441,0.000100344,7.39515e-05,4.20565e-05,1.37847e-05,0
0,-9.96124e-06,-4.72734e-05,-0.000118336,-0.000228425,-0.000381723,-0.000581389,-0.000829655,-0.00112791,-0.00147681,-0.00187634,-0.00232592,-0.00282451,-0.00337064,-0.00396251,-0.00459808,-0.00527507,-0.00599106,-0.00674353,-0.00752984,-0.00834735,-0.00919337,-0.0100652,-0.0109602,-0.0118757,-0.0128092,-0.013758,-0.0147196,-0.0156916,-0.0166716,-0.0176572,-0.018646,-0.0196359,-0.0206246,-0.0216098,-0.0225895,-0.0235615,-0.0245237,-0.025474,-0.0264104,-0.0273308,-0.0282332,-0.0291156,-0.0299761,-0.0308125,-0.031623,-0.0324056,-0.0331584,-0.0338795,-0.034567,-0.035219,-0.0358337,-0.0364094,-0.0369442,-0.0374365,-0.0378848,-0.0382873,-0.0386427,-0.0389495,-0.0392064,-0.0394122,-0.0395659,-0.0396663,-0.0397127,-0.0397043,-0.0396406,-0.0395211,-0.0393455,-0.0391137,-0.0388259,-0.0384823,-0.0380832,-0.0376294,-0.0371216,-0.0365609,-0.0359485,-0.0352859,-0.0345745,-0.0338163,-0.0330134,-0.0321678,-0.031282,-0.0303586,-0.0294004,-0.0284102,-0.0273913,-0.0263468,-0.0252801,-0.0241947,-0.0230943,-0.0219824,-0.020863,-0.0197398,-0.0186167,-0.0174977,-0.0163866,-0.0152873,-0.0142036,-0.0131394,-0.0120984,-0.0110841,-0.0101,-0.00914947,-0.00823563,-0.00736143,-0.00652961,-0.00574266,-0.0050028,-0.00431196,-0.00367174,-0.00308342,-0.0025479,-0.00206566,-0.00163679,-0.00126091,-0.000937158,-0.00066415,-0.000439968,-0.000262117,-0.000127493,-3.23575e-05,2.77048e-05,5.78258e-05,6.39165e-05,5.27586e-05,3.2144e-05,1.10726e-05,0
0,-1.58199e-05,-6.88149e-05,-0.000163905,-0.000305227,-0.000496084,-0.000738952,-0.00103552,-0.00138675,-0.00179295,-0.00225383,-0.00276857,-0.00333592,-0.00395422,-0.00462153,-0.0053356,-0.00609403,-0.0068942,-0.00773343,-0.00860892,-0.00951783,-0.0104573,-0.0114244,-0.0124164,-0.0134303,-0.0144634,-0.015513,-0.0165762,-0.0176504,-0.0187331,-0.0198215,-0.0209133,-0.0220058,-0.0230968,-0.0241837,-0.0252642,-0.026336,-0.0273967,-0.0284442,-0.029476,-0.03049,-0.0314839,-0.0324556,-0.0334029,-0.0343235,-0.0352154,-0.0360763,-0.0369043,-0.0376971,-0.0384528,-0.0391692,-0.0398445,-0.0404767,-0.0410639,-0.0416042,-0.042096,-0.0425374,-0.0429269,-0.0432631,-0.0435443,-0.0437695,-0.0439373,-0.0440467,-0.0440969,-0.0440869,-0.0440163,-0.0438846,-0.0436914,-0.0434367,-0.0431206,-0.0427434,-0.0423056,-0.0418078,-0.0412509,-0.0406362,-0.0399648,-0.0392384,-0.0384588,-0.0376278,-0.0367478,-0.0358211,-0.0348503,-0.0338383,-0.0327879,-0.0317025,-0.0305854,-0.02944,-0.02827,-0.0270793,-0.0258716,-0.0246511,-0.0234218,-0.0221879,-0.0209535,-0.019723,-0.0185004,-0.0172901,-0.0160961,-0.0149227,-0.0137737,-0.0126531,-0.0115647,-0.0105121,-0.00949862,-0.00852756,-0.00760186,-0.00672422,-0.00589708,-0.00512252,-0.00440234,-0.00373791,-0.00313026,-0.00257997,-0.00208718,-0.00165156,-0.00127227,-0.000947958,-0.000676689,-0.000455965,-0.00028267,-0.000153054,-6.2696e-05,-6.46932e-06,2.15117e-05,2.79635e-05,2.05324e-05,7.91775e-06,0
0,-2.17462e-05,-9.07825e-05,-0.000210588,-0.000384132,-0.000613772,-0.000901222,-0.00124756,-0.00165324,-0.00211816,-0.00264169,-0.00322272,-0.00385975,-0.00455093,-0.00529408,-0.00608682,-0.00692654,-0.00781047,-0.00873576,-0.00969943,-0.0106985,-0.0117299,-0.0127906,-0.0138775,-0.0149877,-0.0161181,-0.0172659,-0.018428,-0.0196016,-0.0207839,-0.0219722,-0.0231637,-0.0243557,-0.0255457,-0.0267309,-0.0279089,-0.0290771,-0.030233,-0.0313742,-0.0324981,-0.0336024,-0.0346846,-0.0357424,-0.0367733,-0.0377751,-0.0387453,-0.0396818,-0.0405821,-0.041444,-0.0422654,-0.043044,-0.0437777,-0.0444644,-0.0451021,-0.0456887,-0.0462225,-0.0467016,-0.0471242,-0.0474888,-0.0477938,-0.0480379,-0.0482198,-0.0483383,-0.0483926,-0.0483817,-0.048305,-0.0481621,-0.0479527,-0.0476767,-0.0473342,-0.0469254,-0.0464511,-0.0459118,-0.0453087,-0.0446428,-0.0439157,-0.043129,-0.0422845,-0.0413845,-0.0404313,-0.0394274,-0.0383757,-0.0372792,-0.036141,-0.0349646,-0.0337535,-0.0325116,-0.0312427,-0.0299508,-0.0286403,-0.0273152,-0.0259801,-0.0246394,-0.0232975,-0.021959,-0.0206284,-0.0193103,-0.018009,-0.016729,-0.0154747,-0.01425,-0.0130592,-0.0119061,-0.0107944,-0.00972746,-0.00870854,-0.00774057,-0.00682615,-0.00596758,-0.00516679,-0.00442532,-0.0037443,-0.00312443,-0.00256594,-0.00206857,-0.00163155,-0.00125355,-0.000932701,-0.000666527,-0.000451952,-0.000285266,-0.000162099,-7.73945e-05,-2.53679e-05,5.3931e-07,7.72081e-06,4.46573e-06,0
0,-2.76722e-05,-0.0001129,-0.00025779,-0.000464146,-0.000733354,-0.00106632,-0.00146345,-0.00192464,-0.00244932,-0.00303647,-0.00368465,-0.00439208,-0.00515665,-0.00597599,-0.00684749,-0.00776836,-0.00873568,-0.0097464,-0.0107974,-0.0118855,-0.0130075,-0.0141602,-0.0153404,-0.0165449,-0.0177706,-0.0190142,-0.0202728,-0.0215433,-0.0228227,-0.0241081,-0.0253965,-0.0266851,-0.0279711,-0.0292517,-0.0305241,-0.0317858,-0.0330338,-0.0342657,-0.0354787,-0.0366704,-0.037838,-0.038979,-0.0400908,-0.0411711,-0.0422171,-0.0432265,-0.0441969,-0.0451257,-0.0460107,-0.0468494,-0.0476397,-0.0483793,-0.0490659,-0.0496976,-0.0502723,-0.0507881,-0.0512431,-0.0516356,-0.0519641,-0.052227,-0.0524231,-0.052551,-0.0526099,-0.0525989,-0.0525172,-0.0523644,-0.0521402,-0.0518445,-0.0514774,-0.0510393,-0.0505308,-0.0499526,-0.0493058,-0.0485917,-0.0478118,-0.0469679,-0.046062,-0.0450963,-0.0440735,-0.0429961,-0.0418671,-0.0406899,-0.0394676,-0.0382041,-0.036903,-0.0355683,-0.0342042,-0.032815,-0.0314051,-0.0299791,-0.0285417,-0.0270974,-0.0256512,-0.0242078,-0.022772,-0.0213487,-0.0199425,-0.0185582,-0.0172003,-0.0158734,-0.0145816,-0.0133292,-0.01212,-0.0109578,-0.00984598,-0.0087877,-0.00778577,-0.00684266,-0.00596048,-0.00514092,-0.00438526,-0.00369432,-0.00306844,-0.00250746,-0.0020107,-0.00157691,-0.00120428,-0.000890438,-0.000632365,-0.000426442,-0.000268398,-0.000153302,-7.55334e-05,-2.8761e-05,-5.91554e-06,8.21503e-07,0
0,-3.35546e-05,-0.000134982,-0.000305089,-0.000544548,-0.000853768,-0.00123282,-0.0016814,-0.00219881,-0.00278397,-0.00343542,-0.00415136,-0.00492968,-0.00576801,-0.00666372,-0.007614,-0.00861587,-0.0096662,-0.0107618,-0.0118993,-0.0130755,-0.014287,-0.0155304,-0.0168023,-0.0180994,-0.0194184,-0.020756,-0.0221089,-0.023474,-0.0248481,-0.0262281,-0.0276109,-0.0289935,-0.030373,-0.0317462,-0.0331105,-0.0344628,-0.0358003,-0.0371203,-0.0384198,-0.0396962,-0.0409466,-0.0421683,-0.0433587,-0.0445151,-0.0456347,-0.046715,-0.0477533,-0.0487471,-0.0496939,-0.0505912,-0.0514366,-0.0522277,-0.0529622,-0.0536379,-0.0542527,-0.0548046,-0.0552915,-0.0557118,-0.0560636,-0.0563456,-0.0565562,-0.0566942,-0.0567585,-0.0567482,-0.0566627,-0.0565014,-0.056264,-0.0559503,-0.0555607,-0.0550953,-0.0545549,-0.0539402,-0.0532524,-0.0524928,-0.0516631,-0.050765,-0.0498008,-0.0487727,-0.0476835,-0.0465359,-0.0453332,-0.0440786,-0.0427757,-0.0414284,-0.0400407,-0.0386166,-0.0371607,-0.0356774,-0.0341714,-0.0326474,-0.0311105,-0.0295656,-0.0280176,-0.0264717,-0.024933,-0.0234066,-0.0218974,-0.0204104,-0.0189504,-0.0175223,-0.0161305,-0.0147794,-0.0134733,-0.0122161,-0.0110114,-0.00986252,-0.00877258,-0.00774422,-0.00677971,-0.00588093,-0.00504932,-0.00428582,-0.00359092,-0.00296459,-0.00240624,-0.00191475,-0.00148842,-0.00112497,-0.000821504,-0.000574528,-0.000379911,-0.000232891,-0.000128061,-5.93634e-05,-2.00977e-05,-2.93942e-06,0
0,-3.9366e-05,-0.0001569,-0.000352193,-0.00062482,-0.000974227,-0.00139964,-0.00190004,-0.00247408,-0.00312014,-0.0038363,-0.00462037,-0.00546989,-0.00638217,-0.00735434,-0.00838334,-0.00946598,-0.0105989,-0.0117788,-0.0130022,-0.0142656,-0.0155655,-0.0168983,-0.0182605,-0.0196487,-0.0210594,-0.0224891,-0.0239345,-0.0253922,-0.0268589,-0.0283313,-0.0298063,-0.0312806,-0.0327511,-0.0342147,-0.0356683,-0.037109,-0.0385336,-0.0399392,-0.0413229,-0.0426817,-0.0440127,-0.0453131,-0.0465799,-0.0478104,-0.0490016,-0.050151,-0.0512556,-0.0523129,-0.0533201,-0.0542746,-0.0551739,-0.0560156,-0.0567971,-0.0575162,-0.0581706,-0.0587582,-0.059277,-0.059725,-0.0601005,-0.0604018,-0.0606275,-0.0607763,-0.0608471,-0.0608388,-0.0607508,-0.0605825,-0.0603335,-0.0600039,-0.0595936,-0.0591032,-0.0585332,-0.0578845,-0.0571583,-0.0563559,-0.0554791,-0.0545298,-0.0535101,-0.0524227,-0.0512701,-0.0500555,-0.0487821,-0.0474533,-0.046073,-0.044645,-0.0431736,-0.0416631,-0.0401182,-0.0385436,-0.0369441,-0.0353248,-0.0336909,-0.0320475,-0.0303999,-0.0287535,-0.0271137,-0.0254856,-0.0238748,-0.0222862,-0.0207252,-0.0191966,-0.0177053,-0.016256,-0.0148531,-0.0135007,-0.0122027,-0.0109628,-0.00978408,-0.00866955,-0.00762164,-0.00664241,-0.00573346,-0.00489592,-0.00413041,-0.00343705,-0.0028154,-0.00226447,-0.0017827,-0.00136795,-0.00101746,-0.000727907,-0.000495323,-0.000315156,-0.000182245,-9.08377e-05,-3.46209e-05,-6.7633e-06,0
0,-4.50891e-05,-0.000178573,-0.000398896,-0.000704588,-0.00109415,-0.00156598,-0.00211829,-0.00274912,-0.00345627,-0.00423734,-0.0050897,-0.00601053,-0.00699681,-0.00804539,-0.00915295,-0.0103161,-0.0115313,-0.0127949,-0.0141035,-0.0154532,-0.0168404,-0.0182615,-0.0197128,-0.0211907,-0.0226916,-0.0242118,-0.0257479,-0.0272964,-0.0288538,-0.0304167,-0.0319818,-0.0335458,-0.0351053,-0.0366571,-0.038198,-0.0397249,-0.0412345,-0.0427238,-0.0441896,-0.0456288,-0.0470385,-0.0484156,-0.0497571,-0.0510599,-0.0523213,-0.0535382,-0.0547078,-0.0558272,-0.0568936,-0.0579044,-0.0588569,-0.0597484,-0.0605764,-0.0613385,-0.0620323,-0.0626556,-0.0632063,-0.0636824,-0.064082,-0.0644034,-0.0646451,-0.0648057,-0.0648841,-0.0648791,-0.0647901,-0.0646164,-0.0643578,-0.0640141,-0.0635854,-0.0630721,-0.0624749,-0.0617946,-0.0610325,-0.06019,-0.0592689,-0.0582711,-0.0571989,-0.0560549,-0.0548419,-0.0535631,-0.0522219,-0.0508218,-0.0493667,-0.0478608,-0.0463085,-0.0447143,-0.0430829,-0.0414193,-0.0397286,-0.0380161,-0.0362871,-0.0345471,-0.0328016,-0.0310562,-0.0293164,-0.027588,-0.0258764,-0.0241871,-0.0225255,-0.0208968,-0.0193062,-0.0177585,-0.0162585,-0.0148105,-0.0134187,-0.0120868,-0.0108185,-0.0096167,-0.00848417,-0.00742314,-0.00643542,-0.00552231,-0.00468461,-0.0039226,-0.00323603,-0.00262405,-0.00208526,-0.0016177,-0.00121877,-0.000885336,-0.000613634,-0.000399339,-0.000237561,-0.000122869,-4.93386e-05,-1.06127e-05,0
0,-5.0714e-05,-0.000199943,-0.000445058,-0.000783587,-0.00121312,-0.00173121,-0.00233536,-0.00302293,-0.00379116,-0.00463712,-0.00555774,-0.00654982,-0.00761,-0.00873481,-0.00992067,-0.0111639,-0.0124609,-0.0138078,-0.0152007,-0.016636,-0.0181097,-0.0196181,-0.0211573,-0.0227236,-0.0243132,-0.0259225,-0.0275478,-0.0291854,-0.0308318,-0.0324835,-0.0341369,-0.0357887,-0.0374353,-0.0390735,-0.0406998,-0.042311,-0.0439038,-0.0454749,-0.047021,-0.0485391,-0.0500258,-0.051478,-0.0528926,-0.0542665,-0.0555966,-0.0568799,-0.0581133,-0.0592939,-0.0604188,-0.0614852,-0.0624902,-0.0634311,-0.0643054,-0.0651104,-0.0658437,-0.0665029,-0.067086,-0.0675907,-0.0680151,-0.0683575,-0.0686162,-0.0687899,-0.0688771,-0.068877,-0.0687887,-0.0686115,-0.0683451,-0.0679894,-0.0675444,-0.0670106,-0.0663886,-0.0656792,-0.0648838,-0.0640038,-0.063041,-0.0619974,-0.0608754,-0.0596776,-0.058407,-0.0570667,-0.0556603,-0.0541914,-0.0526642,-0.0510829,-0.0494521,-0.0477763,-0.0460606,-0.0443101,-0.0425302,-0.0407262,-0.0389037,-0.0370686,-0.0352264,-0.033383,-0.0315443,-0.0297162,-0.0279044,-0.0261146,-0.0243526,-0.0226238,-0.0209336,-0.0192872,-0.0176895,-0.0161452,-0.0146586,-0.0132339,-0.0118747,-0.0105844,-0.00936588,-0.0082216,-0.00715358,-0.00616333,-0.00525185,-0.00441961,-0.00366653,-0.00299197,-0.00239471,-0.00187296,-0.00142434,-0.0010459,-0.000734105,-0.000484888,-0.000293633,-0.000155235,-6.41491e-05,-1.44625e-05,0
0,-5.62352e-05,-0.000220977,-0.000490583,-0.00086163,-0.00133082,-0.0018949,-0.00255063,-0.00329473,-0.00412383,-0.00503449,-0.0060232,-0.00708632,-0.00822014,-0.00942089,-0.0106847,-0.0120077,-0.0133859,-0.0148153,-0.0162921,-0.0178121,-0.0193714,-0.020966,-0.022592,-0.0242456,-0.0259227,-0.0276197,-0.0293328,-0.0310581,-0.032792,-0.0345308,-0.0362709,-0.0380089,-0.039741,-0.0414638,-0.0431739,-0.0448678,-0.0465421,-0.0481935,-0.0498184,-0.0514137,-0.0529761,-0.0545021,-0.0559886,-0.0574324,-0.0588302,-0.0601789,-0.0614754,-0.0627165,-0.0638993,-0.0650208,-0.0660781,-0.0670684,-0.0679889,-0.0688369,-0.06961,-0.0703057,-0.0709217,-0.0714559,-0.0719061,-0.0722706,-0.0725476,-0.0727356,-0.0728334,-0.0728399,-0.072754,-0.0725753,-0.0723032,-0.0719377,-0.0714787,-0.0709267,-0.0702823,-0.0695464,-0.0687203,-0.0678054,-0.0668035,-0.0657168,-0.0645476,-0.0632986,-0.0619729,-0.0605737,-0.0591046,-0.0575695,-0.0559726,-0.0543181,-0.0526108,-0.0508555,-0.0490574,-0.0472218,-0.0453541,-0.0434601,-0.0415455,-0.0396162,-0.0376782,-0.0357376,-0.0338006,-0.031873,-0.0299612,-0.028071,-0.0262083,-0.0243791,-0.0225888,-0.0208429,-0.0191467,-0.017505,-0.0159226,-0.0144037,-0.0129523,-0.011572,-0.0102659,-0.00903683,-0.0078869,-0.00681789,-0.005831,-0.00492694,-0.00410581,-0.00336719,-0.00271007,-0.00213285,-0.00163339,-0.00120894,-0.000856224,-0.00057142,-0.000350203,-0.000187787,-7.89866e-05,-1.82972e-05,0
0,-6.16501e-05,-0.000241653,-0.00053541,-0.000938585,-0.00144703,-0.0020567,-0.00276364,-0.00356389,-0.00445352,-0.00542856,-0.00648501,-0.00761882,-0.00882593,-0.0101022,-0.0114435,-0.0128457,-0.0143046,-0.015816,-0.0173758,-0.0189797,-0.0206237,-0.0223036,-0.0240155,-0.0257551,-0.0275187,-0.0293021,-0.0311016,-0.0329132,-0.0347332,-0.0365577,-0.0383832,-0.0402058,-0.0420219,-0.043828,-0.0456204,-0.0473956,-0.04915,-0.0508802,-0.0525827,-0.0542541,-0.0558909,-0.0574896,-0.0590471,-0.0605598,-0.0620246,-0.063438,-0.0647969,-0.0660982,-0.0673386,-0.068515,-0.0696246,-0.0706643,-0.0716313,-0.0725228,-0.0733363,-0.0740692,-0.074719,-0.0752836,-0.0757608,-0.0761486,-0.0764454,-0.0766495,-0.0767596,-0.0767744,-0.0766931,-0.0765149,-0.0762393,-0.0758662,-0.0753957,-0.074828,-0.0741637,-0.0734038,-0.0725495,-0.0716023,-0.0705641,-0.0694368,-0.068223,-0.0669254,-0.0655472,-0.0640915,-0.0625621,-0.060963,-0.0592984,-0.0575728,-0.055791,-0.053958,-0.0520792,-0.0501599,-0.0482058,-0.0462229,-0.044217,-0.0421944,-0.0401613,-0.0381239,-0.0360886,-0.0340617,-0.0320496,-0.0300586,-0.0280949,-0.0261644,-0.0242731,-0.0224268,-0.0206309,-0.0188906,-0.0172109,-0.0155964,-0.0140512,-0.0125793,-0.0111841,-0.00986842,-0.00863487,-0.00748539,-0.00642143,-0.00544391,-0.00455318,-0.00374904,-0.0030307,-0.0023968,-0.00184542,-0.00137405,-0.000979662,-0.000658698,-0.000407114,-0.000220436,-9.38131e-05,-2.21087e-05,0
0,-6.69581e-05,-0.000261958,-0.000579495,-0.00101436,-0.00156159,-0.00221637,-0.00297402,-0.00382996,-0.00477966,-0.0058186,-0.00694233,-0.00814637,-0.00942627,-0.0107776,-0.0121958,-0.0136767,-0.0152156,-0.0168082,-0.0184503,-0.0201374,-0.0218652,-0.0236295,-0.0254261,-0.0272509,-0.0290996,-0.0309684,-0.0328531,-0.0347498,-0.0366546,-0.0385636,-0.040473,-0.0423789,-0.0442778,-0.0461657,-0.0480392,-0.0498944,-0.0517278,-0.0535357,-0.0553147,-0.057061,-0.0587713,-0.060442,-0.0620695,-0.0636506,-0.0651817,-0.0666594,-0.0680805,-0.0694416,-0.0707395,-0.071971,-0.073133,-0.0742225,-0.0752365,-0.0761722,-0.0770269,-0.0777978,-0.0784826,-0.0790789,-0.0795844,-0.0799972,-0.0803154,-0.0805373,-0.0806615,-0.0806868,-0.0806121,-0.0804367,-0.08016,-0.0797818,-0.0793021,-0.0787212,-0.0780397,-0.0772585,-0.0763787,-0.0754018,-0.0743298,-0.0731646,-0.0719088,-0.0705651,-0.0691367,-0.0676269,-0.0660395,-0.0643785,-0.0626483,-0.0608535,-0.058999,-0.0570899,-0.0551316,-0.0531299,-0.0510906,-0.0490196,-0.0469232,-0.0448078,-0.0426797,-0.0405456,-0.0384121,-0.0362856,-0.0341729,-0.0320804,-0.0300147,-0.027982,-0.0259887,-0.0240406,-0.0221436,-0.0203032,-0.0185247,-0.0168128,-0.0151721,-0.0136068,-0.0121205,-0.0107164,-0.00939743,-0.00816568,-0.00702289,-0.00597024,-0.00500834,-0.0041372,-0.00335631,-0.00266453,-0.00206018,-0.00154101,-0.00110425,-0.000746596,-0.000464288,-0.00025314,-0.000108613,-2.58946e-05,0
0,-7.21597e-05,-0.000281886,-0.000622814,-0.0010889,-0.00167438,-0.00237371,-0.00318152,-0.00409257,-0.00510175,-0.00620403,-0.00739446,-0.00866815,-0.0100202,-0.011446,-0.0129406,-0.0144993,-0.0161176,-0.0177908,-0.0195143,-0.0212837,-0.0230945,-0.0249422,-0.0268227,-0.0287315,-0.0306644,-0.0326174,-0.0345862,-0.0365668,-0.0385552,-0.0405475,-0.0425396,-0.0445278,-0.0465082,-0.0484769,-0.0504302,-0.0523644,-0.0542757,-0.0561604,-0.0580148,-0.0598353,-0.0616183,-0.0633602,-0.0650573,-0.0667062,-0.0683033,-0.0698451,-0.0713282,-0.0727492,-0.0741048,-0.0753916,-0.0766065,-0.0777464,-0.0788081,-0.0797888,-0.0806856,-0.0814958,-0.0822168,-0.0828462,-0.0833817,-0.0838211,-0.0841626,-0.0844043,-0.0845448,-0.0845827,-0.084517,-0.0843467,-0.0840714,-0.0836906,-0.0832044,-0.082613,-0.0819169,-0.0811169,-0.0802143,-0.0792105,-0.0781073,-0.0769068,-0.0756115,-0.0742243,-0.0727481,-0.0711865,-0.0695433,-0.0678225,-0.0660286,-0.0641664,-0.0622407,-0.0602569,-0.0582206,-0.0561375,-0.0540137,-0.0518554,-0.0496689,-0.047461,-0.0452381,-0.0430072,-0.0407749,-0.0385483,-0.0363342,-0.0341394,-0.0319706,-0.0298346,-0.0277378,-0.0256864,-0.0236867,-0.0217445,-0.0198652,-0.018054,-0.0163159,-0.0146551,-0.0130758,-0.0115814,-0.0101749,-0.008859,-0.00763555,-0.00650602,-0.00547129,-0.00453166,-0.00368683,-0.00293596,-0.0022776,-0.00170977,-0.00122995,-0.000835092,-0.000521713,-0.000285899,-0.00012339,-2.96571e-05,0
0,-7.7256e-05,-0.000301436,-0.00066535,-0.00116216,-0.00178533,-0.0025286,-0.00338591,-0.00435142,-0.00541942,-0.00658437,-0.00784083,-0.00918349,-0.0106071,-0.0121065,-0.0136767,-0.0153127,-0.0170096,-0.0187625,-0.0205667,-0.0224175,-0.0243103,-0.0262406,-0.0282039,-0.0301958,-0.0322119,-0.034248,-0.0362998,-0.0383633,-0.0404342,-0.0425086,-0.0445825,-0.0466517,-0.0487126,-0.050761,-0.0527933,-0.0548054,-0.0567937,-0.0587543,-0.0606835,-0.0625776,-0.0644327,-0.0662453,-0.0680116,-0.069728,-0.0713909,-0.0729967,-0.0745419,-0.076023,-0.0774366,-0.0787792,-0.0800477,-0.0812386,-0.082349,-0.0833758,-0.084316,-0.0851668,-0.0859255,-0.0865897,-0.0871568,-0.0876248,-0.0879916,-0.0882553,-0.0884143,-0.0884672,-0.0884129,-0.0882503,-0.0879789,-0.0875983,-0.0871082,-0.086509,-0.0858011,-0.0849852,-0.0840625,-0.0830345,-0.0819028,-0.0806697,-0.0793375,-0.0779091,-0.0763876,-0.0747765,-0.0730796,-0.071301,-0.0694453,-0.0675173,-0.065522,-0.0634648,-0.0613515,-0.059188,-0.0569805,-0.0547353,-0.0524591,-0.0501587,-0.0478408,-0.0455127,-0.0431813,-0.0408538,-0.0385373,-0.036239,-0.0339659,-0.0317249,-0.029523,-0.0273667,-0.0252624,-0.0232163,-0.0212342,-0.0193217,-0.0174839,-0.0157255,-0.014051,-0.012464,-0.0109681,-0.00956593,-0.00825987,-0.00705162,-0.00594235,-0.00493264,-0.00402246,-0.00321124,-0.0024978,-0.00188042,-0.00135682,-0.000924239,-0.000579431,-0.000318741,-0.000138159,-3.3402e-05,0