-0,-0,-0,-0,-0,-0,-0,-0,-0,-0,-0,-0,-0,-0,-0,-0,-0,-0,-0,-0,-0,-0,-0,-0,-0,-0,-0,-0,-0,-0,-0,-0,-0,-0,-0,-0,-0,-0,-0,-0,-0,-0,-0,-0,-0,-0,-0,-0,-0,-0,-0,-0,-0,-0,-0,-0,-0,-0,-0,-0,-0,-0,-0,-0,-0,-0,-0,-0,-0,-0,-0,-0,-0,-0,-0,-0,-0,-0,-0,-0,-0,-0,-0,-0,-0,-0,-0,-0,-0,-0,-0,-0,-0,-0,-0,-0,-0,-0,-0,-0,-0,-0,-0,-0,-0,-0,-0,-0,-0,-0,-0,-0,-0,-0,-0,-0,-0,-0,-0,-0,-0,-0,-0,-0,-0,-0,-0,-0
-0,-6.69435e-06,-1.09187e-05,-1.1481e-05,-9.38195e-06,-5.61744e-06,-8.83504e-07,4.36718e-06,9.84211e-06,1.53502e-05,2.0765e-05,2.60026e-05,3.10079e-05,3.57452e-05,4.01932e-05,4.43402e-05,4.8182e-05,5.17197e-05,5.49579e-05,5.79042e-05,6.05677e-05,6.29589e-05,6.5089e-05,6.69694e-05,6.86114e-05,7.00262e-05,7.12244e-05,7.22161e-05,7.30106e-05,7.36166e-05,7.40416e-05,7.42928e-05,7.4376e-05,7.42964e-05,7.40583e-05,7.36654e-05,7.31205e-05,7.24255e-05,7.15822e-05,7.05913e-05,6.94534e-05,6.81686e-05,6.67365e-05,6.51568e-05,6.34288e-05,6.15517e-05,5.9525e-05,5.7348e-05,5.50205e-05,5.25423e-05,4.99136e-05,4.71352e-05,4.42083e-05,4.11345e-05,3.79164e-05,3.4557e-05,3.10602e-05,2.74306e-05,2.36737e-05,1.97959e-05,1.58044e-05,1.17074e-05,7.51416e-06,3.23469e-06,-1.11995e-06,-5.53779e-06,-1.00059e-05,-1.45106e-05,-1.90373e-05,-2.35704e-05,-2.80939e-05,-3.2591e-05,-3.70441e-05,-4.14355e-05,-4.57466e-05,-4.99589e-05,-5.40535e-05,-5.80113e-05,-6.18135e-05,-6.54411e-05,-6.88757e-05,-7.20992e-05,-7.50939e-05,-7.78429e-05,-8.03302e-05,-8.25405e-05,-8.44598e-05,-8.60751e-05,-8.73749e-05,-8.8349e-05,-8.89887e-05,-8.92868e-05,-8.92381e-05,-8.88389e-05,-8.80873e-05,-8.69834e-05,-8.55292e-05,-8.37284e-05,-8.1587e-05,-7.91125e-05,-7.63147e-05,-7.32051e-05,-6.97973e-05,-6.61067e-05,-6.21506e-05,-5.79482e-05,-5.35208e-05,-4.88918e-05,-4.40864e-05,-3.91326e-05,-3.40608e-05,-2.89045e-05,-2.37007e-05,-1.8491e-05,-1.33225e-05,-8.24958e-06,-3.33597e-06,1.34184e-06,5.68995e-06,9.59026e-06,1.28904e-05,1.53893e-05,1.68169e-05,1.68124e-05,1.49235e-05,1.0734e-05,4.52812e-06,-0
-0,-2.12814e-05,-3.12557e-05,-3.08805e-05,-2.27471e-05,-9.32796e-06,7.45673e-06,2.62181e-05,4.5976e-05,6.60434e-05,8.59393e-05,0.000105328,0.000123979,0.000141733,0.000158489,0.000174184,0.000188785,0.000202282,0.00021468,0.000225997,0.000236258,0.000245496,0.000253745,0.000261045,0.000267432,0.000272945,0.000277622,0.000281498,0.000284605,0.000286976,0.000288637,0.000289614,0.000289929,0.000289602,0.000288649,0.000287082,0.000284914,0.000282153,0.000278804,0.000274873,0.000270362,0.000265272,0.000259603,0.000253354,0.000246525,0.000239114,0.000231119,0.00022254,0.000213376,0.00020363,0.000193302,0.000182398,0.000170924,0.000158886,0.000146297,0.000133168,0.000119517,0.000105362,9.07251e-05,7.56321e-05,6.01118e-05,4.41966e-05,2.79224e-05,1.13284e-05,-5.54232e-06,-2.26434e-05,-3.99252e-05,-5.73345e-05,-7.48153e-05,-9.23085e-05,-0.000109752,-0.000127083,-0.000144233,-0.000161135,-0.000177719,-0.000193915,-0.00020965,-0.000224854,-0.000239453,-0.000253378,-0.000266558,-0.000278925,-0.000290413,-0.000300958,-0.0003105,-0.000318982,-0.000326351,-0.000332559,-0.000337562,-0.000341322,-0.000343807,-0.00034499,-0.000344853,-0.000343381,-0.000340568,-0.000336415,-0.00033093,-0.000324128,-0.000316032,-0.000306672,-0.000296085,-0.000284315,-0.000271417,-0.000257449,-0.000242479,-0.000226581,-0.00020984,-0.000192345,-0.000174197,-0.000155504,-0.000136387,-0.000116977,-9.74201e-05,-7.78797e-05,-5.854e-05,-3.96119e-05,-2.13407e-05,-4.0159e-06,1.20148e-05,2.6327e-05,3.83949e-05,4.75617e-05,5.30099e-05,5.37515e-05,4.8705e-05,3.70414e-05,1.92613e-05,-0
-0,-3.80178e-05,-5.24538e-05,-4.80343e-05,-2.95272e-05,-1.08866e-06,3.39638e-05,7.31051e-05,0.00011446,0.000156652,0.000198682,0.000239827,0.00027957,0.00031755,0.000353521,0.000387322,0.000418861,0.000448094,0.000475014,0.000499642,0.000522021,0.000542207,0.000560266,0.000576269,0.000590293,0.000602412,0.000612701,0.000621233,0.000628075,0.00063329,0.000636937,0.000639068,0.00063973,0.000638964,0.000636804,0.000633279,0.000628414,0.000622227,0.000614733,0.000605942,0.000595861,0.000584494,0.000571843,0.000557908,0.000542688,0.000526183,0.000508391,0.000489313,0.000468951,0.00044731,0.000424398,0.000400224,0.000374805,0.000348161,0.000320317,0.000291303,0.000261157,0.000229921,0.000197647,0.000164391,0.000130219,9.52011e-05,5.94177e-05,2.29555e-05,-1.40909e-05,-5.16198e-05,-8.95223e-05,-0.000127683,-0.000165978,-0.00020428,-0.000242455,-0.000280363,-0.000317861,-0.0003548,-0.000391029,-0.000426397,-0.000460748,-0.000493927,-0.000525781,-0.000556156,-0.000584903,-0.000611873,-0.000636926,-0.000659924,-0.000680738,-0.000699246,-0.000715334,-0.0007289,-0.000739851,-0.000748105,-0.000753593,-0.000756259,-0.000756063,-0.000752975,-0.000746984,-0.000738091,-0.000726314,-0.000711688,-0.000694262,-0.000674103,-0.000651292,-0.000625929,-0.000598128,-0.000568021,-0.000535757,-0.000501499,-0.000465431,-0.000427754,-0.000388687,-0.000348472,-0.000307372,-0.000265679,-0.000223715,-0.000181837,-0.000140448,-0.000100006,-6.10374e-05,-2.41552e-05,9.91814e-06,4.03212e-05,6.602e-05,8.57722e-05,9.81034e-05,0.000101328,9.36909e-05,7.3789e-05,4.15409e-05,-0
-0,-5.23637e-05,-6.79603e-05,-5.53619e-05,-2.17578e-05,2.69087e-05,8.58701e-05,0.000151401,0.000220644,0.000291435,0.000362151,0.00043159,0.000498869,0.00056335,0.000624589,0.000682284,0.000736246,0.000786375,0.000832634,0.000875037,0.000913635,0.000948506,0.000979747,0.00100747,0.00103179,0.00105282,0.00107069,0.00108551,0.00109739,0.00110643,0.00111273,0.00111638,0.00111746,0.00111603,0.00111215,0.00110586,0.00109723,0.00108626,0.001073,0.00105746,0.00103965,0.00101958,0.000997264,0.000972697,0.000945883,0.000916821,0.000885516,0.00085197,0.000816191,0.00077819,0.000737984,0.000695594,0.000651052,0.000604394,0.000555668,0.00050493,0.000452248,0.000397698,0.000341371,0.000283368,0.000223803,0.000162802,0.000100505,3.70626e-05,-2.73602e-05,-9.25866e-05,-0.000158428,-0.000224683,-0.000291142,-0.000357582,-0.000423771,-0.000489471,-0.000554434,-0.000618406,-0.00068113,-0.000742342,-0.000801779,-0.000859176,-0.000914268,-0.000966796,-0.0010165,-0.00106314,-0.00110646,-0.00114623,-0.00118223,-0.00121427,-0.00124213,-0.00126565,-0.00128467,-0.00129905,-0.00130867,-0.00131345,-0.0013133,-0.00130819,-0.00129809,-0.00128301,-0.00126298,-0.00123806,-0.00120834,-0.00117393,-0.00113498,-0.00109165,-0.00104415,-0.000992698,-0.000937561,-0.000879024,-0.000817404,-0.000753048,-0.000686342,-0.000617704,-0.000547593,-0.000476516,-0.000405028,-0.000333748,-0.000263367,-0.000194664,-0.000128527,-6.59735e-05,-8.18688e-06,4.34536e-05,8.73319e-05,0.000121561,0.000143971,0.000152143,0.000143563,0.000115972,6.79958e-05,-0
-0,-6.10987e-05,-7.28451e-05,-4.70693e-05,6.72106e-06,8.08188e-05,0.000169026,0.000266421,0.000369147,0.000474215,0.00057933,0.000682752,0.000783177,0.000879642,0.000971458,0.00105814,0.00113938,0.001215,0.0012849,0.00134907,0.00140758,0.00146051,0.00150798,0.00155016,0.00158718,0.00161923,0.00164646,0.00166904,0.00168713,0.00170088,0.00171042,0.00171588,0.00171737,0.001715,0.00170885,0.001699,0.0016855,0.00166842,0.00164778,0.00162362,0.00159596,0.00156482,0.00153021,0.00149214,0.00145061,0.00140563,0.0013572,0.00130535,0.00125007,0.00119141,0.00112937,0.00106401,0.000995372,0.000923521,0.000848532,0.000770495,0.000689516,0.000605719,0.000519243,0.000430246,0.000338904,0.000245413,0.000149986,5.28563e-05,-4.57241e-05,-0.000145485,-0.000246139,-0.000347381,-0.000448888,-0.000550326,-0.000651342,-0.000751574,-0.000850648,-0.000948182,-0.00104378,-0.00113706,-0.00122761,-0.00131503,-0.00139894,-0.00147893,-0.00155462,-0.00162564,-0.00169161,-0.0017522,-0.00180707,-0.0018559,-0.00189842,-0.00193435,-0.00196347,-0.00198556,-0.00200045,-0.00200801,-0.00200811,-0.00200071,-0.00198577,-0.00196329,-0.00193333,-0.00189598,-0.00185137,-0.00179969,-0.00174114,-0.00167599,-0.00160454,-0.00152714,-0.00144419,-0.00135612,-0.00126342,-0.00116662,-0.00106631,-0.000963121,-0.000857759,-0.000750992,-0.000643663,-0.000536706,-0.000431158,-0.00032818,-0.000229079,-0.00013534,-4.86607e-05,2.90132e-05,9.54453e-05,0.000148078,0.00018402,0.000200081,0.000192882,0.000159069,9.56081e-05,-0
-0,-6.20539e-05,-6.35314e-05,-1.87824e-05,6.06708e-05,0.000165496,0.000288145,0.000422553,0.000563889,0.000708341,0.000852931,0.000995358,0.00113386,0.00126713,0.0013942,0.00151437,0.00162718,0.00173233,0.00182969,0.00191921,0.00200092,0.00207492,0.00214137,0.00220045,0.00225235,0.00229729,0.00233548,0.00236713,0.00239246,0.00241167,0.00242492,0.0024324,0.00243426,0.00243063,0.00242163,0.00240737,0.00238792,0.00236336,0.00233375,0.00229913,0.00225954,0.002215,0.00216553,0.00211115,0.00205187,0.00198771,0.00191867,0.00184479,0.00176608,0.00168259,0.00159436,0.00150146,0.00140396,0.00130195,0.00119555,0.00108489,0.00097012,0.000851425,0.000729002,0.000603079,0.000473905,0.00034176,0.000206946,6.97933e-05,-6.93435e-05,-0.000210084,-0.000352022,-0.000494731,-0.000637759,-0.000780635,-0.000922868,-0.00106395,-0.00120336,-0.00134057,-0.00147503,-0.00160619,-0.00173349,-0.00185638,-0.00197432,-0.00208675,-0.00219314,-0.00229296,-0.00238572,-0.00247092,-0.00254812,-0.00261687,-0.00267679,-0.0027275,-0.00276868,-0.00280004,-0.00282135,-0.0028324,-0.00283307,-0.00282325,-0.0028029,-0.00277204,-0.00273074,-0.00267914,-0.00261742,-0.00254582,-0.00246465,-0.00237429,-0.00227515,-0.00216774,-0.00205259,-0.00193034,-0.00180165,-0.00166728,-0.00152805,-0.00138485,-0.00123868,-0.00109059,-0.000941775,-0.00079352,-0.000647257,-0.000504572,-0.000367241,-0.000237254,-0.000116858,-8.59468e-06,8.46594e-05,0.00015966,0.000212778,0.00024001,0.000237032,0.000199272,0.000121963,-0
-0,-5.38152e-05,-3.75107e-05,3.27203e-05,0.000143715,0.000284726,0.000446986,0.000623372,0.000808134,0.000996674,0.00118534,0.00137128,0.00155227,0.00172661,0.00189306,0.00205068,0.00219885,0.00233715,0.00246535,0.00258336,0.0026912,0.00278897,0.00287683,0.00295498,0.00302368,0.00308318,0.00313373,0.00317561,0.00320907,0.00323435,0.0032517,0.00326133,0.00326342,0.00325815,0.00324568,0.00322613,0.00319963,0.00316626,0.00312609,0.0030792,0.00302562,0.0029654,0.00289857,0.00282516,0.00274518,0.00265866,0.00256563,0.00246612,0.00236018,0.00224786,0.00212924,0.0020044,0.00187346,0.00173654,0.0015938,0.00144543,0.00129163,0.00113265,0.000968762,0.000800272,0.000627518,0.000450873,0.000270744,8.75701e-05,-9.81737e-05,-0.000285981,-0.000475313,-0.000665601,-0.000856248,-0.00104663,-0.0012361,-0.00142398,-0.00160959,-0.00179222,-0.00197115,-0.00214567,-0.00231503,-0.00247851,-0.00263539,-0.00278495,-0.00292648,-0.0030593,-0.00318274,-0.00329618,-0.00339901,-0.00349066,-0.00357061,-0.00363839,-0.00369356,-0.00373576,-0.00376466,-0.00378003,-0.00378166,-0.00376944,-0.00374331,-0.00370331,-0.00364953,-0.00358213,-0.00350138,-0.0034076,-0.00330119,-0.00318265,-0.00305254,-0.00291151,-0.0027603,-0.00259972,-0.00243068,-0.00225417,-0.00207128,-0.0018832,-0.00169123,-0.00149677,-0.00130138,-0.00110674,-0.000914719,-0.000727362,-0.000546942,-0.000375984,-0.000217308,-7.40672e-05,5.02112e-05,0.000151587,0.00022568,0.000267653,0.000272201,0.000233523,0.000145222,-0
-0,-3.54901e-05,6.91854e-06,0.000109742,0.000258545,0.000441406,0.000648494,0.000871739,0.00110456,0.00134161,0.00157862,0.00181218,0.00203961,0.00225887,0.00246837,0.00266698,0.00285386,0.00302849,0.00319053,0.00333983,0.00347638,0.00360028,0.00371169,0.00381085,0.00389803,0.00397353,0.00403767,0.00409074,0.00413308,0.00416496,0.00418667,0.00419847,0.00420059,0.00419326,0.00417665,0.00415093,0.00411625,0.00407271,0.00402042,0.00395946,0.00388988,0.00381176,0.00372512,0.00363001,0.00352646,0.00341452,0.00329422,0.00316562,0.00302878,0.00288378,0.00273072,0.00256973,0.00240096,0.00222457,0.00204078,0.00184983,0.001652,0.0014476,0.00123699,0.00102057,0.000798765,0.000572068,0.000340996,0.000106114,-0.00013197,-0.00037261,-0.000615117,-0.000858767,-0.0011028,-0.00134642,-0.00158881,-0.00182911,-0.00206645,-0.00229993,-0.00252866,-0.00275171,-0.00296815,-0.00317707,-0.00337755,-0.00356869,-0.00374959,-0.00391939,-0.00407726,-0.00422239,-0.00435403,-0.00447146,-0.00457402,-0.00466112,-0.00473221,-0.00478682,-0.00482456,-0.00484511,-0.00484823,-0.00483378,-0.00480169,-0.00475199,-0.00468481,-0.00460036,-0.00449898,-0.00438107,-0.00424715,-0.00409784,-0.00393387,-0.00375607,-0.00356536,-0.00336279,-0.00314951,-0.00292678,-0.00269599,-0.00245863,-0.00221636,-0.00197095,-0.00172436,-0.00147869,-0.00123627,-0.000999639,-0.000771585,-0.00055519,-0.000353858,-0.000171364,-1.18905e-05,0.000119924,0.000218945,0.0002795,0.000295319,0.000259439,0.00016402,-0
-0,-6.5418e-06,7.0864e-05,0.000213872,0.000407102,0.00063769,0.000894919,0.0011699,0.00145529,0.0017451,0.00203446,0.00231945,0.00259698,0.00286461,0.0031205,0.00336324,0.00359184,0.00380561,0.00400413,0.00418719,0.00435473,0.00450683,0.00464367,0.0047655,0.00487264,0.0049654,0.00504415,0.00510925,0.00516106,0.00519992,0.00522615,0.00524008,0.00524197,0.00523207,0.00521062,0.00517781,0.00513381,0.00507876,0.00501279,0.00493599,0.00484845,0.00475023,0.00464141,0.00452202,0.00439213,0.00425178,0.00410105,0.00394,0.00376873,0.00358734,0.00339596,0.00319477,0.00298395,0.00276372,0.00253437,0.0022962,0.00204955,0.00179483,0.00153249,0.00126302,0.000986967,0.000704934,0.000417569,0.000125575,-0.000170295,-0.000469241,-0.000770411,-0.00107291,-0.0013758,-0.0016781,-0.0019788,-0.00227685,-0.00257117,-0.00286068,-0.00314424,-0.00342075,-0.00368905,-0.00394803,-0.00419656,-0.00443354,-0.00465786,-0.00486848,-0.00506436,-0.00524454,-0.00540808,-0.0055541,-0.00568181,-0.00579046,-0.0058794,-0.00594805,-0.00599592,-0.00602264,-0.00602791,-0.00601154,-0.00597347,-0.00591373,-0.00583247,-0.00572998,-0.00560663,-0.00546295,-0.00529957,-0.00511726,-0.00491692,-0.00469955,-0.00446632,-0.00421849,-0.00395749,-0.00368488,-0.00340234,-0.00311174,-0.00281507,-0.00251453,-0.00221248,-0.00191149,-0.00161435,-0.00132413,-0.00104413,-0.000778017,-0.000529783,-0.000303826,-0.000104987,6.14038e-05,0.000189469,0.00027272,0.000303973,0.000275209,0.000177366,-0
-0,3.33248e-05,0.000155003,0.000346155,0.000590725,0.00087513,0.00118793,0.00151954,0.00186199,0.00220869,0.00255424,0.00289426,0.00322527,0.00354448,0.00384975,0.00413948,0.00441246,0.0046679,0.00490525,0.00512423,0.00532475,0.00550688,0.00567079,0.00581675,0.00594508,0.00605617,0.00615041,0.0062282,0.00628995,0.00633605,0.00636688,0.00638279,0.00638411,0.00637111,0.00634408,0.00630323,0.00624877,0.00618086,0.00609966,0.00600528,0.00589784,0.0057774,0.00564407,0.00549789,0.00533896,0.00516734,0.00498312,0.00478639,0.00457728,0.00435592,0.0041225,0.00387721,0.00362031,0.00335208,0.00307284,0.002783,0.00248297,0.00217325,0.00185439,0.00152699,0.00119173,0.000849326,0.000500572,0.000146319,-0.000212523,-0.000574985,-0.000940041,-0.00130661,-0.00167357,-0.00203973,-0.00240388,-0.00276477,-0.00312109,-0.00347153,-0.00381477,-0.00414943,-0.00447418,-0.00478766,-0.00508852,-0.00537543,-0.00564709,-0.00590223,-0.00613964,-0.00635813,-0.0065566,-0.00673401,-0.00688938,-0.00702183,-0.00713059,-0.00721495,-0.00727436,-0.00730832,-0.00731652,-0.00729871,-0.00725482,-0.00718489,-0.0070891,-0.00696779,-0.00682141,-0.0066506,-0.00645612,-0.00623888,-0.00599996,-0.00574058,-0.00546213,-0.00516613,-0.00485429,-0.00452848,-0.00419073,-0.00384324,-0.00348843,-0.00312889,-0.00276744,-0.0024071,-0.00205118,-0.00170324,-0.00136717,-0.00104718,-0.000747877,-0.000474275,-0.000231865,-2.6661e-05,0.000134737,0.000245067,0.000296299,0.000279485,0.000184552,-0
-0,8.42407e-05,0.000259706,0.000507222,0.000810285,0.00115478,0.00152871,0.00192191,0.00232589,0.00273354,0.00313902,0.00353752,0.00392519,0.00429895,0.00465639,0.00499569,0.00531549,0.00561483,0.00589309,0.00614992,0.00638518,0.00659892,0.00679131,0.00696263,0.00711324,0.00724354,0.00735397,0.00744498,0.00751702,0.00757053,0.00760592,0.00762361,0.00762394,0.00760726,0.00757386,0.007524,0.00745793,0.00737582,0.00727787,0.0071642,0.00703495,0.00689022,0.00673012,0.00655473,0.00636415,0.00615847,0.00593781,0.00570229,0.00545206,0.00518732,0.00490826,0.00461516,0.0043083,0.00398805,0.00365481,0.00330903,0.00295126,0.00258207,0.00220212,0.00181214,0.00141293,0.00100535,0.000590345,0.000168921,-0.000257841,-0.000688795,-0.00112273,-0.00155836,-0.00199436,-0.00242934,-0.00286187,-0.00329045,-0.00371358,-0.00412969,-0.00453723,-0.0049346,-0.00532021,-0.00569247,-0.00604979,-0.00639063,-0.00671344,-0.00701674,-0.0072991,-0.00755914,-0.00779555,-0.0080071,-0.00819267,-0.00835121,-0.00848181,-0.00858366,-0.00865606,-0.00869849,-0.00871052,-0.0086919,-0.00864253,-0.00856246,-0.00845189,-0.00831122,-0.008141,-0.00794196,-0.00771499,-0.00746117,-0.00718177,-0.00687823,-0.00655216,-0.00620538,-0.00583988,-0.00545786,-0.0050617,-0.004654,-0.00423756,-0.00381542,-0.00339084,-0.00296734,-0.00254875,-0.00213915,-0.00174298,-0.00136504,-0.00101053,-0.000685087,-0.00039484,-0.000146468,5.27373e-05,0.000194787,0.000270884,0.000271283,0.000185086,-0
-0,0.000146225,0.000385121,0.0006974,0.00106629,0.00147731,0.00191803,0.00237786,0.00284786,0.00332051,0.00378957,0.00424988,0.00469727,0.00512838,0.00554058,0.00593184,0.00630065,0.00664593,0.00696697,0.00726334,0.00753488,0.00778161,0.0080037,0.00820144,0.00837522,0.00852547,0.00865266,0.00875728,0.00883984,0.0089008,0.00894065,0.00895982,0.00895872,0.00893771,0.00889713,0.00883729,0.00875844,0.00866081,0.00854459,0.00840995,0.00825705,0.00808601,0.00789695,0.00768998,0.00746523,0.00722281,0.00696287,0.00668557,0.00639109,0.00607965,0.00575153,0.00540704,0.00504652,0.00467042,0.00427921,0.00387344,0.00345374,0.0030208,0.0025754,0.00211839,0.00165071,0.00117336,0.00068745,0.000194157,-0.000305261,-0.000809468,-0.00131705,-0.00182653,-0.00233636,-0.00284491,-0.00335054,-0.00385151,-0.00434607,-0.00483243,-0.00530876,-0.00577322,-0.00622399,-0.0066592,-0.00707703,-0.00747569,-0.0078534,-0.00820844,-0.00853915,-0.00884394,-0.00912129,-0.00936979,-0.00958813,-0.00977511,-0.00992965,-0.0100508,-0.0101378,-0.01019,-0.010207,-0.0101883,-0.010134,-0.010044,-0.00991862,-0.00975828,-0.00956361,-0.00933546,-0.00907487,-0.00878308,-0.00846155,-0.00811194,-0.00773614,-0.00733622,-0.00691451,-0.00647352,-0.00601602,-0.00554499,-0.00506365,-0.00457549,-0.00408425,-0.00359395,-0.00310892,-0.0026338,-0.00217358,-0.00173365,-0.0013198,-0.00093827,-0.000595832,-0.000299801,-5.81273e-05,0.000120527,0.000226681,0.000249902,0.000178636,-0
-0,0.000219222,0.000531241,0.000916788,0.00135896,0.00184305,0.00235634,0.00288791,0.00342846,0.00397015,0.0045064,0.00503178,0.00554184,0.00603299,0.00650239,0.00694783,0.00736768,0.00776075,0.00812623,0.00846366,0.00877284,0.00905375,0.00930659,0.00953165,0.00972934,0.00990012,0.0100445,0.010163,0.0102562,0.0103246,0.0103687,0.010389,0.010386,0.01036,0.0103114,0.0102406,0.0101478,0.0100333,0.00989733,0.00974009,0.00956173,0.00936241,0.00914227,0.00890145,0.0086401,0.00835837,0.00805641,0.00773445,0.00739269,0.00703141,0.00665093,0.00625162,0.0058339,0.00539828,0.00494532,0.00447567,0.00399005,0.00348928,0.00297425,0.00244594,0.00190545,0.00135394,0.000792667,0.000223002,-0.000353614,-0.000935646,-0.00152148,-0.0021094,-0.00269765,-0.00328437,-0.00386767,-0.00444556,-0.00501605,-0.00557707,-0.00612656,-0.00666241,-0.00718252,-0.00768477,-0.0081671,-0.00862742,-0.00906374,-0.00947407,-0.00985653,-0.0102093,-0.0105306,-0.0108189,-0.0110726,-0.0112905,-0.0114711,-0.0116136,-0.0117169,-0.0117804,-0.0118034,-0.0117857,-0.0117271,-0.0116276,-0.0114876,-0.0113074,-0.0110879,-0.01083,-0.0105349,-0.010204,-0.00983891,-0.00944158,-0.00901413,-0.00855895,-0.00807867,-0.00757617,-0.00705458,-0.00651729,-0.00596796,-0.00541053,-0.00484923,-0.00428858,-0.00373343,-0.00318899,-0.0026608,-0.00215482,-0.00167745,-0.00123553,-0.000836433,-0.000488105,-0.000199113,2.12591e-05,0.000162921,0.000214859,0.000164989,-0
-0,0.000303126,0.000697948,0.00116532,0.00168832,0.00225213,0.00284383,0.00345229,0.00406797,0.00468274,0.0052898,0.00588346,0.00645907,0.00701284,0.00754175,0.00804348,0.00851626,0.0089588,0.00937026,0.0097501,0.0100981,0.0104143,0.0106987,0.0109519,0.0111741,0.0113659,0.0115278,0.0116604,0.0117642,0.0118399,0.0118881,0.0119091,0.0119035,0.0118718,0.0118144,0.0117316,0.0116237,0.0114911,0.0113339,0.0111524,0.0109469,0.0107174,0.0104641,0.0101873,0.00988696,0.00956343,0.00921685,0.00884746,0.00845553,0.00804139,0.0076054,0.007148,0.00666969,0.00617104,0.00565272,0.00511546,0.0045601,0.00398758,0.00339892,0.00279524,0.00217779,0.00154789,0.000906987,0.000256623,-0.000401559,-0.00106582,-0.00173432,-0.00240513,-0.00307625,-0.00374559,-0.00441098,-0.0050702,-0.00572099,-0.00636101,-0.00698793,-0.00759937,-0.00819294,-0.00876628,-0.00931703,-0.00984285,-0.0103415,-0.0108107,-0.0112483,-0.0116523,-0.0120207,-0.0123516,-0.0126435,-0.0128947,-0.0131038,-0.0132696,-0.0133911,-0.0134674,-0.0134979,-0.0134823,-0.0134202,-0.0133119,-0.0131575,-0.0129577,-0.0127132,-0.0124251,-0.0120947,-0.0117237,-0.0113138,-0.0108673,-0.0103865,-0.00987413,-0.00933312,-0.00876673,-0.00817846,-0.00757212,-0.00695183,-0.00632199,-0.0056873,-0.00505282,-0.00442393,-0.00380638,-0.00320628,-0.00263017,-0.00208503,-0.00157831,-0.00111797,-0.000712551,-0.000371206,-0.000103792,7.90571e-05,0.000165828,0.000144016,-0
-0,0.000397795,0.000885047,0.0014428,0.00205422,0.00270444,0.00338048,0.00407105,0.00476644,0.00545837,0.00613983,0.00680497,0.00744895,0.00806785,0.00865852,0.00921853,0.009746,0.0102396,0.0106984,0.0111219,0.0115098,0.0118621,0.012179,0.0124608,0.0127081,0.0129212,0.0131008,0.0132476,0.0133621,0.013445,0.0134968,0.0135181,0.0135094,0.0134713,0.0134041,0.0133083,0.0131842,0.0130322,0.0128524,0.0126452,0.0124107,0.0121492,0.0118608,0.0115458,0.0112043,0.0108366,0.0104429,0.0100234,0.00957858,0.00910868,0.00861417,0.00809555,0.0075534,0.00698838,0.00640124,0.00579282,0.00516407,0.00451606,0.00384993,0.00316697,0.00246858,0.00175625,0.0010316,0.000296375,-0.000447584,-0.00119832,-0.00195377,-0.00271178,-0.00347008,-0.00422635,-0.00497816,-0.00572302,-0.00645838,-0.00718166,-0.00789021,-0.00858138,-0.00925252,-0.00990095,-0.010524,-0.0111192,-0.0116838,-0.0122155,-0.0127117,-0.0131702,-0.0135888,-0.0139655,-0.0142983,-0.0145854,-0.0148254,-0.0150168,-0.0151584,-0.0152494,-0.0152889,-0.0152766,-0.0152122,-0.0150958,-0.0149276,-0.0147084,-0.0144389,-0.0141203,-0.0137542,-0.0133423,-0.0128866,-0.0123896,-0.011854,-0.0112826,-0.0106788,-0.0100463,-0.00938889,-0.00871085,-0.00801671,-0.00731137,-0.00660004,-0.00588828,-0.00518202,-0.00448755,-0.00381156,-0.00316117,-0.00254394,-0.00196789,-0.00144157,-0.000974102,-0.000575186,-0.000255211,-2.53008e-05,0.000102602,0.00011565,-0
-0,0.000503069,0.00109229,0.00174896,0.00245638,0.00319976,0.00396608,0.00474401,0.00552376,0.00629693,0.00705639,0.00779617,0.00851132,0.00919782,0.00985243,0.0104726,0.0110565,0.0116026,0.0121101,0.0125783,0.0130071,0.0133963,0.0137463,0.0140574,0.01433,0.0145648,0.0147623,0.0149233,0.0150483,0.015138,0.0151932,0.0152143,0.0152019,0.0151566,0.0150789,0.0149691,0.0148277,0.0146549,0.0144511,0.0142166,0.0139516,0.0136563,0.013331,0.0129758,0.012591,0.0121768,0.0117335,0.0112615,0.0107611,0.0102327,0.00967677,0.00909395,0.00848487,0.00785027,0.00719101,0.00650803,0.0058024,0.00507531,0.00432805,0.00356207,0.00277891,0.00198025,0.0011679,0.000343795,-0.000490008,-0.00133133,-0.00217788,-0.00302726,-0.00387696,-0.00472438,-0.00556683,-0.00640155,-0.00722571,-0.00803642,-0.00883077,-0.0096058,-0.0103586,-0.0110861,-0.0117855,-0.0124538,-0.0130882,-0.0136859,-0.0142443,-0.0147608,-0.0152328,-0.0156583,-0.0160349,-0.0163608,-0.0166342,-0.0168535,-0.0170175,-0.017125,-0.0171753,-0.0171678,-0.0171023,-0.0169787,-0.0167975,-0.0165592,-0.0162649,-0.0159159,-0.0155137,-0.0150603,-0.014558,-0.0140093,-0.0134174,-0.0127854,-0.012117,-0.0114162,-0.0106873,-0.00993493,-0.00916413,-0.00838026,-0.00758903,-0.00679654,-0.00600925,-0.00523402,-0.0044781,-0.00374918,-0.00305541,-0.00240538,-0.00180821,-0.00127356,-0.000811679,-0.000433445,-0.000150426,2.50555e-05,7.98664e-05,-0
-0,0.000618772,0.0013194,0.00208346,0.00289445,0.00373771,0.00460029,0.00547088,0.00633964,0.00719814,0.0080392,0.00885679,0.00964589,0.0104024,0.0111231,0.0118053,0.0124472,0.0130473,0.0136046,0.0141186,0.0145891,0.015016,0.0153997,0.0157404,0.0160388,0.0162954,0.0165109,0.0166859,0.0168213,0.0169177,0.0169758,0.0169962,0.0169795,0.0169263,0.0168371,0.0167123,0.0165525,0.0163578,0.0161287,0.0158654,0.0155683,0.0152375,0.0148734,0.0144761,0.0140459,0.0135831,0.013088,0.012561,0.0120025,0.011413,0.010793,0.0101431,0.00946416,0.00875694,0.0080224,0.00726162,0.00647577,0.00566617,0.00483428,0.00398167,0.00311006,0.00222133,0.00131746,0.000400599,-0.000526985,-0.00146289,-0.00240458,-0.0033494,-0.0042946,-0.00523731,-0.00617455,-0.00710329,-0.0080204,-0.00892271,-0.00980699,-0.01067,-0.0115084,-0.0123191,-0.0130987,-0.0138441,-0.0145521,-0.0152196,-0.0158438,-0.0164217,-0.0169506,-0.0174281,-0.0178516,-0.0182192,-0.0185287,-0.0187785,-0.0189671,-0.0190933,-0.0191562,-0.0191552,-0.0190899,-0.0189604,-0.018767,-0.0185104,-0.0181917,-0.0178122,-0.0173738,-0.0168784,-0.0163287,-0.0157275,-0.0150781,-0.0143839,-0.0136491,-0.012878,-0.0120752,-0.011246,-0.0103957,-0.00953031,-0.00865593,-0.00777923,-0.00690721,-0.00604729,-0.00520731,-0.00439551,-0.00362062,-0.0028918,-0.00221874,-0.00161162,-0.00108121,-0.000638845,-0.000296517,-6.68873e-05,3.66636e-05,-0
-0,0.000744721,0.00156605,0.0024459,0.003368,0.00431787,0.00528269,0.00625121,0.00721365,0.0081616,0.00908787,0.00998643,0.0108522,0.0116812,0.01247,0.0132161,0.0139176,0.0145729,0.0151812,0.015742,0.016255,0.0167203,0.0171381,0.0175089,0.0178332,0.0181118,0.0183452,0.0185343,0.0186799,0.0187826,0.0188432,0.0188623,0.0188407,0.0187788,0.0186774,0.0185367,0.0183573,0.0181396,0.0178839,0.0175905,0.0172597,0.0168919,0.0164872,0.0160459,0.0155684,0.015055,0.0145059,0.0139217,0.0133027,0.0126495,0.0119628,0.0112432,0.0104916,0.00970884,0.00889604,0.00805435,0.0071851,0.00628972,0.00536981,0.00442712,0.00346355,0.00248113,0.00148206,0.000468681,-0.000556505,-0.00159087,-0.00263163,-0.00367589,-0.00472062,-0.00576267,-0.0067988,-0.00782567,-0.00883987,-0.0098379,-0.0108163,-0.0117713,-0.0126996,-0.0135974,-0.0144613,-0.0152877,-0.0160732,-0.0168144,-0.017508,-0.018151,-0.0187402,-0.0192731,-0.0197468,-0.020159,-0.0205076,-0.0207905,-0.0210063,-0.0211535,-0.0212311,-0.0212384,-0.021175,-0.0210409,-0.0208364,-0.0205623,-0.0202197,-0.0198101,-0.0193354,-0.0187979,-0.0182002,-0.0175455,-0.0168374,-0.0160797,-0.0152767,-0.0144333,-0.0135545,-0.0126458,-0.0117133,-0.0107633,-0.00980247,-0.00883802,-0.0078775,-0.00692888,-0.00600058,-0.00510142,-0.00424069,-0.00342813,-0.00267396,-0.00198891,-0.00138423,-0.000871706,-0.000463728,-0.000173271,-1.39467e-05,-0
-0,0.00088073,0.00183193,0.00283586,0.00387655,0.00493972,0.00601273,0.00708447,0.00814527,0.00918678,0.0102019,0.0111846,0.0121298,0.0130336,0.0138927,0.0147044,0.0154669,0.0161789,0.0168393,0.0174477,0.018004,0.0185082,0.0189606,0.0193618,0.0197123,0.0200129,0.0202643,0.0204673,0.0206228,0.0207315,0.0207941,0.0208115,0.0207843,0.0207131,0.0205985,0.020441,0.0202411,0.0199991,0.0197156,0.0193907,0.0190249,0.0186185,0.0181716,0.0176847,0.017158,0.016592,0.0159869,0.0153432,0.0146615,0.0139424,0.0131865,0.0123946,0.0115677,0.0107067,0.00981273,0.00888721,0.0079315,0.00694721,0.00593607,0.0049,0.00384105,0.00276146,0.00166363,0.000550101,-0.000576397,-0.001713,-0.00285668,-0.00400427,-0.00515249,-0.0062979,-0.00743697,-0.00856606,-0.00968145,-0.0107794,-0.0118559,-0.0129072,-0.0139294,-0.0149186,-0.0158708,-0.0167823,-0.0176492,-0.018468,-0.019235,-0.0199467,-0.0206,-0.0211917,-0.0217189,-0.0221791,-0.0225698,-0.0228888,-0.0231344,-0.0233051,-0.0233997,-0.0234173,-0.0233576,-0.0232204,-0.0230062,-0.0227156,-0.0223499,-0.0219106,-0.0213998,-0.0208198,-0.0201738,-0.0194649,-0.018697,-0.0178744,-0.0170017,-0.016084,-0.0151269,-0.0141363,-0.0131188,-0.0120811,-0.0110305,-0.00997466,-0.00892177,-0.00788033,-0.00685934,-0.00586819,-0.00491675,-0.00401531,-0.00317466,-0.00240604,-0.00172117,-0.0011323,-0.000652192,-0.000294133,-7.19497e-05,-0
-0,0.00102661,0.00211671,0.00325291,0.00441957,0.00560268,0.00678982,0.00797006,0.00913388,0.0102731,0.0113806,0.0124505,0.013478,0.014459,0.0153903,0.0162695,0.0170946,0.0178644,0.018578,0.0192349,0.0198352,0.0203788,0.0208663,0.0212981,0.021675,0.0219977,0.022267,0.0224838,0.0226489,0.0227632,0.0228276,0.0228426,0.0228092,0.0227279,0.0225994,0.0224242,0.0222027,0.0219356,0.021623,0.0212655,0.0208633,0.0204167,0.0199262,0.0193919,0.0188144,0.0181939,0.0175308,0.0168258,0.0160793,0.0152919,0.0144645,0.013598,0.0126932,0.0117513,0.0107735,0.00976137,0.00871632,0.00764012,0.00653467,0.00540203,0.00424444,0.00306433,0.00186429,0.000647089,-0.000584331,-0.00182686,-0.00307722,-0.00433199,-0.00558759,-0.00684032,-0.00808635,-0.00932173,-0.0105424,-0.0117443,-0.0129233,-0.014075,-0.0151953,-0.01628,-0.0173248,-0.0183255,-0.019278,-0.0201784,-0.0210227,-0.0218071,-0.0225282,-0.0231825,-0.0237669,-0.0242784,-0.0247144,-0.0250727,-0.025351,-0.0255479,-0.0256619,-0.0256922,-0.0256381,-0.0254997,-0.0252771,-0.0249713,-0.0245833,-0.0241149,-0.0235683,-0.022946,-0.0222512,-0.0214875,-0.020659,-0.0197701,-0.018826,-0.0178322,-0.0167945,-0.0157196,-0.0146142,-0.0134857,-0.0123419,-0.011191,-0.0100418,-0.00890325,-0.00778504,-0.00669712,-0.00564992,-0.00465432,-0.00372162,-0.00286359,-0.00209246,-0.0014209,-0.000862051,-0.000429513,-0.000137336,-0