-0,-0.000904338,-0.00340073,-0.00645102,-0.00923308,-0.011217,-0.0120867,-0.0116659,-0.00986821,-0.00666607,-0.00207033,0.00388253,0.011139,0.0196345,0.0292976,0.0400527,0.0518224,0.0645291,0.078096,0.0924478,0.107511,0.123216,0.139494,0.156281,0.173515,0.191136,0.209088,0.227318,0.245774,0.264407,0.283171,0.302021,0.320912,0.339803,0.358654,0.377425,0.396077,0.41457,0.432869,0.450934,0.468729,0.486216,0.503359,0.520119,0.536458,0.55234,0.567727,0.582579,0.596859,0.61053,0.623551,0.635886,0.647496,0.658343,0.668392,0.677605,0.685947,0.693384,0.699882,0.70541,0.709938,0.713438,0.715885,0.717256,0.717529,0.716687,0.714715,0.711604,0.707344,0.701933,0.69537,0.687661,0.678814,0.668843,0.657765,0.645603,0.632386,0.618144,0.602916,0.586743,0.569672,0.551754,0.533045,0.513606,0.493501,0.472799,0.451571,0.429893,0.407844,0.385507,0.362963,0.3403,0.317605,0.294967,0.272475,0.250219,0.228288,0.20677,0.185754,0.165324,0.145565,0.126556,0.108376,0.0910991,0.0747941,0.0595266,0.0453565,0.032338,0.0205194,0.00994211,0.000640054,-0.00736079,-0.0140434,-0.0194007,-0.0234368,-0.0261686,-0.0276276,-0.0278632,-0.026946,-0.0249727,-0.0220741,-0.0184244,-0.0142563,-0.00988141,-0.00571567,-0.00230029,-0.000262823,-0
-0.000904338,-0.0015935,-0.00228167,-0.00305573,-0.00361717,-0.00364464,-0.00288677,-0.00117073,0.00161093,0.00551572,0.0105643,0.0167507,0.0240494,0.0324214,0.0418178,0.0521833,0.0634585,0.0755814,0.0884889,0.102118,0.116405,0.13129,0.146712,0.162614,0.178937,0.19563,0.212638,0.229912,0.247403,0.265065,0.282852,0.300722,0.318632,0.336541,0.354409,0.372197,0.389868,0.407383,0.424705,0.441799,0.458626,0.475152,0.491339,0.507152,0.522554,0.53751,0.551983,0.565938,0.579338,0.592147,0.604331,0.615853,0.626678,0.636773,0.646102,0.654635,0.662338,0.66918,0.675133,0.680168,0.684258,0.687381,0.689513,0.690634,0.690728,0.689779,0.687777,0.684712,0.680579,0.675378,0.669109,0.661779,0.653397,0.643977,0.633537,0.6221,0.609691,0.596342,0.582087,0.566966,0.551022,0.534302,0.516858,0.498746,0.480025,0.460756,0.441007,0.420845,0.400342,0.379573,0.358612,0.337538,0.316429,0.295367,0.27443,0.253699,0.233256,0.213179,0.193547,0.174437,0.155923,0.138078,0.12097,0.104666,0.0892274,0.0747113,0.0611702,0.0486515,0.0371961,0.0268389,0.0176073,0.00952091,0.00259062,-0.00318238,-0.00780784,-0.0113079,-0.0137188,-0.0150935,-0.015504,-0.0150457,-0.013841,-0.012045,-0.00984988,-0.00748691,-0.00521601,-0.00328109,-0.00177232,-0.000262823
-0.00340371,-0.0022841,-0.00107754,0.000125716,0.0014631,0.00314042,0.00535277,0.0082565,0.0119647,0.0165518,0.0220598,0.0285056,0.0358863,0.0441842,0.05337,0.0634063,0.0742497,0.0858527,0.098165,0.111135,0.124709,0.138834,0.15346,0.168532,0.184002,0.199818,0.215934,0.232302,0.248876,0.265613,0.282469,0.299402,0.316372,0.33334,0.350265,0.367111,0.383841,0.400416,0.416802,0.432962,0.44886,0.464463,0.479733,0.494638,0.509142,0.523211,0.536811,0.549907,0.562466,0.574454,0.585839,0.596587,0.606666,0.616045,0.624694,0.632582,0.639681,0.645963,0.651403,0.655975,0.659657,0.662428,0.664269,0.665164,0.665097,0.664057,0.662035,0.659026,0.655025,0.650034,0.644056,0.637097,0.629168,0.620283,0.61046,0.599721,0.58809,0.575597,0.562274,0.548159,0.533292,0.517715,0.501478,0.484629,0.467224,0.449319,0.430974,0.41225,0.393213,0.373929,0.354466,0.334895,0.315286,0.29571,0.276241,0.256949,0.237907,0.219185,0.200855,0.182983,0.165637,0.14888,0.132774,0.117377,0.102743,0.0889219,0.0759598,0.0638969,0.052768,0.0426018,0.0334198,0.0252362,0.0180568,0.0118778,0.00668545,0.00245402,-0.000855193,-0.00329574,-0.00493793,-0.00587079,-0.00620393,-0.00606827,-0.00561407,-0.0050023,-0.00438166,-0.0038365,-0.0032829,-0.00229567
-0.00646804,-0.00306242,0.000129143,0.00317231,0.00620278,0.00938992,0.0129007,0.0168793,0.0214403,0.0266679,0.032619,0.0393276,0.0468087,0.0550619,0.0640747,0.0738253,0.0842845,0.0954176,0.107186,0.119549,0.132461,0.14588,0.159759,0.174053,0.188716,0.203704,0.218973,0.234479,0.25018,0.266033,0.281999,0.298036,0.314106,0.33017,0.346191,0.362132,0.377957,0.39363,0.409115,0.424378,0.439384,0.4541,0.468491,0.482525,0.496168,0.509387,0.52215,0.534426,0.546182,0.557386,0.56801,0.578021,0.587392,0.596093,0.604097,0.611376,0.617906,0.623662,0.628621,0.632761,0.636064,0.63851,0.640085,0.640775,0.640567,0.639453,0.637426,0.634482,0.630621,0.625843,0.620154,0.613562,0.606077,0.597714,0.58849,0.578425,0.567546,0.555877,0.543451,0.530301,0.516465,0.501982,0.486896,0.471254,0.455103,0.438496,0.421485,0.404128,0.386483,0.368608,0.350565,0.332416,0.314225,0.296055,0.277971,0.260036,0.242315,0.22487,0.207763,0.191055,0.174804,0.159067,0.143897,0.129346,0.115461,0.102284,0.089856,0.0782105,0.0673764,0.057377,0.0482287,0.0399409,0.032515,0.0259438,0.0202101,0.0152863,0.0111329,0.0076975,0.00491354,0.00269987,0.000960587,-0.000413181,-0.00153829,-0.00252854,-0.0034734,-0.00440158,-0.00522791,-0.00570083
-0.0092809,-0.00362781,0.00148355,0.00623138,0.0107861,0.0153167,0.0199822,0.0249221,0.0302524,0.0360642,0.0424251,0.0493821,0.0569641,0.0651851,0.0740466,0.08354,0.0936486,0.104349,0.115614,0.127411,0.139705,0.152459,0.165635,0.179193,0.193092,0.207294,0.221756,0.23644,0.251306,0.266314,0.281426,0.296603,0.311809,0.327006,0.342157,0.357228,0.372183,0.386986,0.401605,0.416006,0.430154,0.444018,0.457565,0.470762,0.483579,0.495985,0.507948,0.519439,0.530427,0.540885,0.550784,0.560095,0.568793,0.576852,0.584246,0.590951,0.596946,0.602208,0.606718,0.610458,0.61341,0.61556,0.616894,0.617401,0.617073,0.615903,0.613886,0.61102,0.607307,0.602748,0.59735,0.591122,0.584074,0.576222,0.567582,0.558174,0.548022,0.53715,0.525588,0.513367,0.500521,0.487087,0.473104,0.458614,0.443661,0.428291,0.412553,0.396497,0.380173,0.363636,0.34694,0.33014,0.313292,0.296452,0.279677,0.263024,0.246549,0.230307,0.214352,0.198739,0.183517,0.168736,0.154443,0.140682,0.127495,0.114917,0.102983,0.0917211,0.0811548,0.0713025,0.062176,0.0537807,0.0461145,0.0391672,0.0329197,0.0273431,0.0223983,0.0180349,0.0141909,0.0107928,0.00775672,0.00499076,0.00240041,-0.000102194,-0.00258374,-0.00507025,-0.00752776,-0.00986038
-0.0113115,-0.00365302,0.00320084,0.00948386,0.0153945,0.0211108,0.0267924,0.0325788,0.0385883,0.0449175,0.0516421,0.0588189,0.0664881,0.0746751,0.0833931,0.0926449,0.102425,0.112719,0.12351,0.134773,0.146483,0.158607,0.171115,0.183972,0.197144,0.210594,0.224286,0.238183,0.252248,0.266445,0.280737,0.295088,0.309462,0.323823,0.338138,0.35237,0.366487,0.380454,0.394239,0.407809,0.421132,0.434177,0.446912,0.459307,0.471332,0.482957,0.494154,0.504895,0.515151,0.524897,0.534105,0.542752,0.550812,0.558263,0.565082,0.571247,0.57674,0.581541,0.585634,0.589002,0.591633,0.593513,0.594632,0.594981,0.594554,0.593346,0.591355,0.588581,0.585025,0.580692,0.575588,0.569724,0.56311,0.555761,0.547693,0.538926,0.529481,0.519382,0.508655,0.49733,0.485438,0.473012,0.460087,0.446702,0.432895,0.418708,0.404184,0.389367,0.374302,0.359038,0.343622,0.328102,0.312527,0.296947,0.281412,0.265971,0.250673,0.235567,0.220699,0.206116,0.191861,0.177979,0.164509,0.151489,0.138953,0.126934,0.115459,0.104551,0.0942293,0.084508,0.075395,0.066892,0.0589941,0.0516888,0.0449556,0.0387653,0.0330794,0.0278501,0.0230198,0.0185215,0.0142807,0.0102171,0.00624938,0.00230101,-0.00169136,-0.00577024,-0.00995476,-0.0142538
-0.0122342,-0.00287566,0.00548834,0.0131093,0.0201994,0.0269431,0.0335024,0.0400184,0.046612,0.0533838,0.060416,0.067773,0.0755038,0.0836433,0.0922141,0.101229,0.11069,0.120595,0.130931,0.141685,0.152834,0.164357,0.176226,0.188413,0.200886,0.213615,0.226567,0.239707,0.253002,0.266418,0.279921,0.293475,0.307047,0.320604,0.33411,0.347534,0.360843,0.374004,0.386985,0.399755,0.412283,0.424539,0.436494,0.448118,0.459382,0.47026,0.480723,0.490747,0.500304,0.509371,0.517924,0.525939,0.533395,0.540272,0.546548,0.552207,0.55723,0.561602,0.565308,0.568336,0.570673,0.57231,0.573239,0.573453,0.572949,0.571723,0.569775,0.567105,0.563719,0.559619,0.554816,0.549317,0.543135,0.536283,0.528778,0.520638,0.511883,0.502536,0.49262,0.482163,0.471192,0.459737,0.44783,0.435506,0.422798,0.409743,0.39638,0.382747,0.368884,0.354833,0.340635,0.326332,0.311967,0.297584,0.283224,0.268931,0.254748,0.240715,0.226873,0.213262,0.19992,0.186884,0.174187,0.161862,0.149938,0.138441,0.127393,0.116814,0.106718,0.0971158,0.0880109,0.0794025,0.0712833,0.0636391,0.0564485,0.0496823,0.0433032,0.0372655,0.0315156,0.0259919,0.0206264,0.0153464,0.0100773,0.00474612,-0.000715024,-0.00636758,-0.0122705,-0.0184945
-0.0118551,-0.00110606,0.00851827,0.0172669,0.0253535,0.0329642,0.0402618,0.0473884,0.0544665,0.0616003,0.0688764,0.0763653,0.0841228,0.0921913,0.100601,0.109373,0.118518,0.12804,0.137934,0.148193,0.158801,0.169743,0.180995,0.192535,0.204335,0.216369,0.228606,0.241016,0.253568,0.266229,0.278969,0.291754,0.304551,0.317329,0.330056,0.342699,0.355227,0.367609,0.379814,0.391812,0.403575,0.415072,0.426275,0.437158,0.447692,0.457853,0.467614,0.476952,0.485842,0.494262,0.502191,0.509608,0.516492,0.522827,0.528594,0.533777,0.538362,0.542336,0.545685,0.548401,0.550473,0.551894,0.552658,0.552762,0.552201,0.550977,0.549088,0.546539,0.543333,0.539478,0.534979,0.529849,0.524099,0.517741,0.510792,0.503269,0.49519,0.486576,0.477449,0.467833,0.457754,0.447238,0.436314,0.425011,0.41336,0.401393,0.389142,0.376643,0.363929,0.351036,0.338,0.324857,0.311645,0.298399,0.285156,0.271953,0.258826,0.245811,0.232941,0.22025,0.20777,0.195532,0.183565,0.171894,0.160545,0.149538,0.138891,0.12862,0.118734,0.109241,0.100141,0.0914315,0.0831029,0.0751395,0.0675196,0.060214,0.0531866,0.0463941,0.0397858,0.0333044,0.0268865,0.0204641,0.0139659,0.00731916,0.000449842,-0.00671825,-0.0142693,-0.0223068
-0.0100621,0.00178574,0.0124235,0.0220881,0.0309873,0.0393041,0.0472,0.0548164,0.0622768,0.0696872,0.0771377,0.0847032,0.0924448,0.100411,0.108638,0.117154,0.125976,0.135114,0.14457,0.154343,0.164422,0.174796,0.185449,0.19636,0.207507,0.218866,0.23041,0.242112,0.253944,0.265875,0.277875,0.289914,0.301961,0.313986,0.325957,0.337844,0.349617,0.361246,0.372701,0.383955,0.394978,0.405743,0.416223,0.426393,0.436226,0.445699,0.454787,0.463469,0.471722,0.479527,0.486863,0.493712,0.500056,0.50588,0.511168,0.515907,0.520085,0.52369,0.526712,0.529144,0.530978,0.53221,0.532834,0.53285,0.532255,0.531052,0.529241,0.526827,0.523815,0.520212,0.516028,0.51127,0.505953,0.500087,0.493689,0.486773,0.479358,0.471463,0.463106,0.45431,0.445098,0.435492,0.425518,0.415201,0.404569,0.393648,0.382467,0.371056,0.359443,0.347659,0.335735,0.323701,0.311587,0.299426,0.287247,0.275082,0.26296,0.250911,0.238963,0.227145,0.215482,0.204,0.192723,0.181671,0.170865,0.16032,0.150051,0.140069,0.130381,0.12099,0.111895,0.103091,0.0945655,0.0863032,0.0782814,0.0704715,0.0628387,0.0553414,0.0479315,0.040555,0.0331521,0.0256577,0.0180025,0.0101128,0.00191037,-0.00669029,-0.0157868,-0.0254972
-0.00679478,0.00588508,0.0173021,0.0276772,0.0372082,0.0460723,0.054427,0.0624121,0.0701504,0.0777491,0.0853001,0.0928817,0.100559,0.108385,0.116401,0.12464,0.133126,0.141873,0.150889,0.160177,0.169734,0.17955,0.189614,0.199909,0.210418,0.221119,0.231988,0.243002,0.254132,0.265352,0.276634,0.287949,0.299268,0.310561,0.321799,0.332953,0.343994,0.354894,0.365624,0.376157,0.386466,0.396525,0.406308,0.415791,0.42495,0.433763,0.442207,0.450261,0.457907,0.465125,0.471897,0.478208,0.484042,0.489385,0.494225,0.498549,0.502348,0.505614,0.508337,0.510513,0.512136,0.513204,0.513713,0.513664,0.513056,0.511893,0.510177,0.507914,0.50511,0.501771,0.497907,0.493529,0.488646,0.483273,0.477422,0.471108,0.464347,0.457157,0.449555,0.441559,0.433191,0.42447,0.415417,0.406056,0.396408,0.386498,0.376348,0.365984,0.35543,0.344711,0.333853,0.322881,0.31182,0.300696,0.289533,0.278358,0.267195,0.256067,0.244997,0.234009,0.223123,0.21236,0.201738,0.191274,0.180982,0.170877,0.160966,0.151259,0.141759,0.132466,0.123377,0.114485,0.105777,0.0972356,0.088839,0.0805587,0.072361,0.0642059,0.0560479,0.0478354,0.0395114,0.0310133,0.0222732,0.0132175,0.00376588,-0.00617135,-0.0166968,-0.0279317
-0.00202556,0.0112452,0.0232236,0.0341138,0.0441025,0.0533588,0.0620352,0.0702685,0.0781798,0.0858762,0.0934509,0.100984,0.108543,0.116186,0.123957,0.131894,0.140024,0.148367,0.156936,0.165736,0.17477,0.184032,0.193514,0.203203,0.213085,0.223141,0.233349,0.243689,0.254134,0.264661,0.275243,0.285852,0.296461,0.307042,0.317568,0.32801,0.338341,0.348533,0.35856,0.368396,0.378015,0.387391,0.396502,0.405324,0.413834,0.422013,0.429839,0.437293,0.444358,0.451017,0.457255,0.463056,0.468408,0.473299,0.477719,0.481657,0.485106,0.488059,0.490511,0.492458,0.493896,0.494824,0.495242,0.49515,0.49455,0.493447,0.491844,0.489747,0.487163,0.4841,0.480567,0.476573,0.47213,0.467249,0.461944,0.456227,0.450113,0.443617,0.436756,0.429545,0.422001,0.414143,0.405987,0.397554,0.388861,0.379929,0.370776,0.361423,0.35189,0.342197,0.332365,0.322413,0.312363,0.302233,0.292046,0.281819,0.271572,0.261325,0.251095,0.2409,0.230756,0.220679,0.210682,0.200778,0.190978,0.181291,0.171723,0.162279,0.152959,0.143762,0.134683,0.125712,0.116835,0.108036,0.0992905,0.0905724,0.0818484,0.0730804,0.0642247,0.0552323,0.0460485,0.0366131,0.0268601,0.016717,0.00610365,-0.00506953,-0.0169046,-0.0295194
0.00425227,0.0178964,0.0302352,0.0414572,0.0517374,0.0612364,0.0701009,0.0784635,0.0864433,0.0941462,0.101666,0.109083,0.116468,0.123879,0.131367,0.13897,0.146721,0.154642,0.162751,0.171056,0.179563,0.18827,0.197173,0.206262,0.215524,0.224943,0.234502,0.244179,0.253954,0.263801,0.273698,0.283618,0.293534,0.303422,0.313253,0.323002,0.332642,0.342147,0.351492,0.360651,0.369601,0.378318,0.386779,0.394963,0.40285,0.410418,0.417651,0.424531,0.431042,0.437169,0.442897,0.448216,0.453114,0.45758,0.461606,0.465186,0.468312,0.47098,0.473187,0.474929,0.476207,0.47702,0.477369,0.477256,0.476685,0.475661,0.474188,0.472273,0.469923,0.467147,0.463953,0.460351,0.456352,0.451966,0.447205,0.442082,0.43661,0.430801,0.424669,0.418228,0.411493,0.404479,0.397199,0.38967,0.381907,0.373924,0.365739,0.357366,0.34882,0.340119,0.331277,0.32231,0.313233,0.304061,0.294811,0.285496,0.276131,0.266729,0.257305,0.247871,0.238438,0.229018,0.219621,0.210254,0.200926,0.191641,0.182403,0.173213,0.16407,0.154969,0.145903,0.136863,0.127833,0.118795,0.109728,0.100603,0.0913898,0.0820513,0.072546,0.062827,0.0528421,0.0425338,0.0318384,0.0206858,0.00899805,-0.00331151,-0.0163407,-0.0302003
0.0120319,0.0258528,0.0383673,0.0497499,0.0601643,0.0697629,0.078686,0.0870618,0.0950066,0.102625,0.110009,0.117241,0.124392,0.131522,0.138684,0.14592,0.153263,0.160741,0.168372,0.17617,0.184142,0.192291,0.200613,0.209102,0.217748,0.226537,0.235454,0.244479,0.253593,0.262773,0.271998,0.281242,0.290481,0.29969,0.308843,0.317916,0.326883,0.335719,0.344401,0.352903,0.361205,0.369283,0.377116,0.384684,0.391968,0.398951,0.405614,0.411944,0.417924,0.423544,0.428789,0.433651,0.438119,0.442187,0.445846,0.449092,0.451921,0.454329,0.456316,0.457879,0.45902,0.459741,0.460043,0.45993,0.459408,0.45848,0.457154,0.455436,0.453334,0.450857,0.448012,0.44481,0.441259,0.437372,0.433157,0.428627,0.423791,0.418662,0.413251,0.40757,0.40163,0.395444,0.389022,0.382377,0.375521,0.368465,0.361221,0.3538,0.346214,0.338475,0.330592,0.322578,0.314443,0.306198,0.297853,0.289418,0.280903,0.272318,0.263671,0.25497,0.246223,0.237436,0.228617,0.219769,0.210896,0.202001,0.193083,0.184141,0.175172,0.166169,0.157124,0.148025,0.138857,0.129601,0.120236,0.110736,0.101068,0.0912,0.0810905,0.0706956,0.0599657,0.0488461,0.0372763,0.0251893,0.0125113,-0.000839835,-0.0149553,-0.0299367
0.021298,0.0351171,0.0476375,0.059021,0.0694214,0.0789831,0.0878401,0.0961161,0.103924,0.111367,0.118535,0.125512,0.132367,0.139164,0.145956,0.152785,0.15969,0.166699,0.173833,0.181108,0.188535,0.196117,0.203854,0.211742,0.219773,0.227935,0.236214,0.244593,0.253055,0.261578,0.27014,0.278721,0.287295,0.295839,0.304329,0.31274,0.32105,0.329234,0.33727,0.345134,0.352805,0.360264,0.367488,0.374461,0.381165,0.387582,0.393698,0.3995,0.404974,0.410109,0.414895,0.419323,0.423387,0.42708,0.430397,0.433334,0.43589,0.438062,0.439852,0.441259,0.442286,0.442936,0.443213,0.44312,0.442665,0.441852,0.44069,0.439184,0.437343,0.435175,0.43269,0.429895,0.4268,0.423414,0.419747,0.415809,0.411608,0.407155,0.402459,0.397528,0.392373,0.387001,0.381423,0.375645,0.369678,0.363528,0.357204,0.350713,0.344062,0.337259,0.330311,0.323223,0.316004,0.308658,0.301191,0.29361,0.28592,0.278125,0.270231,0.26224,0.254158,0.245986,0.237728,0.229383,0.220954,0.212438,0.203834,0.195137,0.186342,0.177441,0.168424,0.159278,0.149988,0.140535,0.130897,0.121049,0.110962,0.100602,0.0899315,0.0789086,0.0674868,0.0556143,0.0432344,0.0302841,0.0166947,0.00239006,-0.0127133,-0.028707
0.0320298,0.0456842,0.0580535,0.0692892,0.0795359,0.0889307,0.097602,0.105669,0.113241,0.120419,0.127292,0.133942,0.14044,0.146849,0.153222,0.159606,0.166039,0.17255,0.179164,0.185898,0.192764,0.199769,0.206914,0.214196,0.22161,0.229145,0.23679,0.244528,0.252343,0.260215,0.268125,0.276051,0.283971,0.291862,0.299701,0.307465,0.315132,0.322679,0.330084,0.337326,0.344385,0.351241,0.357875,0.364272,0.370414,0.376286,0.381876,0.38717,0.392159,0.396831,0.40118,0.405198,0.40888,0.412221,0.415218,0.417869,0.420175,0.422134,0.423749,0.425022,0.425956,0.426556,0.426827,0.426774,0.426404,0.425723,0.424739,0.42346,0.421893,0.420047,0.41793,0.415551,0.412918,0.410039,0.406923,0.403578,0.400011,0.396231,0.392244,0.388058,0.383678,0.379112,0.374364,0.369441,0.364347,0.359087,0.353665,0.348085,0.34235,0.336463,0.330428,0.324246,0.317919,0.311451,0.304841,0.298093,0.291206,0.284181,0.27702,0.269723,0.262288,0.254716,0.247005,0.239154,0.231159,0.223016,0.214722,0.206269,0.197651,0.188857,0.179877,0.170698,0.161302,0.151671,0.141785,0.131619,0.121143,0.110328,0.0991372,0.0875315,0.0754674,0.0628967,0.0497666,0.0360191,0.0215908,0.00641249,-0.00959098,-0.0265009
0.0442033,0.0575431,0.0696162,0.0805648,0.0905262,0.0996308,0.108002,0.115754,0.122993,0.129818,0.136316,0.142569,0.148647,0.154612,0.160519,0.166416,0.172339,0.178323,0.184391,0.190563,0.196852,0.203267,0.209809,0.216479,0.223272,0.230179,0.237188,0.244287,0.251459,0.258687,0.26595,0.27323,0.280504,0.287752,0.294951,0.30208,0.309116,0.316039,0.322828,0.329463,0.335924,0.342194,0.348256,0.354093,0.359691,0.365038,0.370119,0.374926,0.379449,0.38368,0.387612,0.39124,0.394561,0.397571,0.40027,0.402656,0.404732,0.4065,0.407961,0.40912,0.409981,0.410551,0.410834,0.410838,0.41057,0.410037,0.409247,0.408208,0.406928,0.405415,0.403677,0.401722,0.399557,0.397191,0.394629,0.391879,0.388947,0.385838,0.382558,0.379111,0.375502,0.371733,0.367808,0.363729,0.359497,0.355114,0.350581,0.345897,0.341062,0.336075,0.330936,0.325642,0.320192,0.314583,0.308814,0.302881,0.296781,0.290512,0.28407,0.277452,0.270653,0.26367,0.256498,0.249132,0.241566,0.233794,0.225809,0.217603,0.209166,0.200487,0.191555,0.182354,0.17287,0.163082,0.152971,0.142513,0.13168,0.120444,0.108771,0.0966247,0.0839644,0.070746,0.0569208,0.0424362,0.0272345,0.0112538,-0.00557255,-0.0233158
0.0577925,0.0706792,0.0823206,0.0928519,0.102404,0.111101,0.119061,0.126396,0.133209,0.139595,0.145641,0.151426,0.15702,0.162485,0.167877,0.173242,0.17862,0.184043,0.189538,0.195125,0.200818,0.206627,0.212555,0.218604,0.224769,0.231043,0.237417,0.243876,0.250407,0.256993,0.263615,0.270255,0.276891,0.283504,0.290073,0.296576,0.302993,0.309304,0.315489,0.321529,0.327407,0.333106,0.33861,0.343903,0.348975,0.353811,0.358402,0.36274,0.366815,0.370622,0.374156,0.377414,0.380393,0.383092,0.385512,0.387654,0.38952,0.391114,0.392441,0.393504,0.394311,0.394868,0.395182,0.39526,0.39511,0.39474,0.394158,0.393372,0.39239,0.391221,0.389871,0.388348,0.386659,0.384811,0.382808,0.380656,0.37836,0.375923,0.373349,0.370639,0.367796,0.36482,0.361711,0.358468,0.355091,0.351576,0.347921,0.344123,0.340177,0.336079,0.331823,0.327405,0.322819,0.318058,0.313116,0.307987,0.302664,0.297139,0.291407,0.285459,0.279288,0.272888,0.266249,0.259365,0.252227,0.244826,0.237153,0.229197,0.220949,0.212394,0.203521,0.194315,0.184758,0.174834,0.164521,0.153797,0.142636,0.131012,0.118892,0.106244,0.09303,0.07921,0.0647398,0.049572,0.0336552,0.0169347,-0.000647969,-0.019154
0.0727708,0.0850751,0.0961582,0.106149,0.115174,0.123351,0.130796,0.137616,0.143911,0.149774,0.155291,0.160538,0.165585,0.170495,0.175321,0.18011,0.184903,0.189733,0.194626,0.199603,0.204679,0.209865,0.215165,0.220582,0.226111,0.231747,0.23748,0.243299,0.249189,0.255135,0.261119,0.267122,0.273127,0.279111,0.285057,0.290943,0.29675,0.30246,0.308052,0.31351,0.318817,0.323958,0.328917,0.333682,0.33824,0.342583,0.346699,0.350583,0.354227,0.357628,0.360781,0.363686,0.366341,0.368747,0.370906,0.37282,0.374494,0.375933,0.377142,0.378128,0.378897,0.379458,0.379817,0.379984,0.379966,0.379773,0.379412,0.378892,0.37822,0.377404,0.376452,0.37537,0.374164,0.372839,0.371399,0.369849,0.368192,0.366429,0.36456,0.362588,0.360509,0.358323,0.356027,0.353617,0.351089,0.348436,0.345654,0.342734,0.33967,0.336452,0.333074,0.329524,0.325793,0.321873,0.317751,0.313419,0.308865,0.30408,0.299051,0.29377,0.288224,0.282404,0.276298,0.269897,0.263189,0.256162,0.248806,0.241108,0.233057,0.224638,0.215837,0.20664,0.19703,0.186989,0.176496,0.165532,0.154071,0.142088,0.129555,0.116441,0.102712,0.0883324,0.0732619,0.0574587,0.0408778,0.0234713,0.00518909,-0.0140208
0.0891108,0.100712,0.111117,0.120452,0.128837,0.136389,0.143217,0.149427,0.155116,0.160374,0.165286,0.169927,0.174365,0.178663,0.182872,0.187041,0.19121,0.195411,0.199671,0.204012,0.208449,0.212993,0.217651,0.222422,0.227306,0.232296,0.237384,0.242558,0.247806,0.253112,0.25846,0.26383,0.269206,0.274568,0.279897,0.285174,0.290379,0.295496,0.300505,0.305391,0.310138,0.314732,0.319159,0.323407,0.327466,0.331328,0.334984,0.338428,0.341657,0.344666,0.347454,0.350021,0.352368,0.354496,0.35641,0.358113,0.359611,0.36091,0.362018,0.362941,0.363687,0.364266,0.364686,0.364955,0.365083,0.365079,0.364951,0.364707,0.364355,0.363903,0.363357,0.362724,0.362007,0.361212,0.360342,0.359398,0.358383,0.357296,0.356136,0.354901,0.353587,0.352191,0.350707,0.349128,0.347447,0.345654,0.343741,0.341697,0.339512,0.337172,0.334666,0.331981,0.329104,0.32602,0.322717,0.319179,0.315393,0.311345,0.307021,0.302406,0.297486,0.292249,0.28668,0.280765,0.274492,0.267847,0.260816,0.253386,0.245543,0.237272,0.228559,0.219388,0.209743,0.199605,0.188955,0.177774,0.16604,0.153727,0.140812,0.127265,0.113056,0.0981533,0.0825221,0.0661253,0.0489241,0.0308773,0.0119428,-0.00792275
0.106785,0.117569,0.127184,0.135752,0.143392,0.150215,0.15633,0.161838,0.166835,0.17141,0.175643,0.17961,0.183377,0.187006,0.190549,0.194052,0.197556,0.201092,0.204689,0.208366,0.212141,0.216024,0.220021,0.224134,0.22836,0.232696,0.237132,0.241658,0.246261,0.250925,0.255636,0.260376,0.265126,0.269869,0.274586,0.279259,0.283869,0.2884,0.292835,0.297157,0.301354,0.30541,0.309316,0.313059,0.31663,0.320023,0.32323,0.326249,0.329074,0.331705,0.334141,0.336385,0.338437,0.340302,0.341985,0.343491,0.344827,0.346,0.347019,0.347893,0.34863,0.34924,0.349732,0.350116,0.350402,0.350598,0.350713,0.350755,0.350733,0.350653,0.350522,0.350344,0.350124,0.349865,0.349569,0.349237,0.348868,0.348461,0.348012,0.347518,0.346972,0.346368,0.345697,0.34495,0.344117,0.343186,0.342143,0.340976,0.339669,0.338208,0.336576,0.334757,0.332734,0.330489,0.328006,0.325266,0.322251,0.318944,0.315328,0.311384,0.307097,0.302448,0.297423,0.292004,0.286175,0.279921,0.273227,0.266078,0.258457,0.25035,0.24174,0.232613,0.222951,0.212737,0.201953,0.190579,0.178596,0.16598,0.15271,0.13876,0.124102,0.10871,0.0925527,0.0755983,0.0578137,0.0391648,0.0196165,-0.000866325
0.125768,0.135625,0.144342,0.152039,0.158831,0.164829,0.170137,0.174855,0.179077,0.18289,0.186373,0.189599,0.192635,0.19554,0.198365,0.201157,0.203955,0.206791,0.209692,0.212678,0.215766,0.218967,0.222285,0.225724,0.229281,0.232952,0.236729,0.2406,0.244553,0.248574,0.252647,0.256756,0.260882,0.265008,0.269117,0.27319,0.27721,0.281162,0.285028,0.288795,0.292448,0.295977,0.299369,0.302616,0.30571,0.308644,0.311414,0.314017,0.31645,0.318714,0.320811,0.322742,0.324512,0.326125,0.327589,0.32891,0.330095,0.331155,0.332098,0.332934,0.333673,0.334325,0.3349,0.335409,0.335862,0.336267,0.336635,0.336973,0.337288,0.337588,0.337879,0.338164,0.338447,0.33873,0.339014,0.339298,0.339581,0.339858,0.340125,0.340376,0.340601,0.340793,0.34094,0.341029,0.341048,0.340981,0.340813,0.340527,0.340104,0.339526,0.338773,0.337826,0.336663,0.335264,0.333607,0.331672,0.329436,0.326879,0.323979,0.320717,0.317072,0.313024,0.308553,0.303641,0.29827,0.292422,0.28608,0.279226,0.271843,0.263917,0.255429,0.246364,0.236706,0.226437,0.215539,0.203996,0.191788,0.178894,0.165295,0.150969,0.135891,0.120038,0.103384,0.0859025,0.0675654,0.0483452,0.0282136,0.00714307
0.146031,0.154858,0.162576,0.169301,0.175148,0.180225,0.184637,0.18848,0.191847,0.194822,0.197484,0.199904,0.202148,0.204274,0.206332,0.208368,0.210419,0.212518,0.214691,0.216957,0.219333,0.221829,0.22445,0.227199,0.230074,0.233069,0.236176,0.239385,0.242684,0.246057,0.24949,0.252967,0.256469,0.25998,0.263482,0.266959,0.270393,0.273769,0.277073,0.280289,0.283407,0.286414,0.289301,0.29206,0.294683,0.297168,0.299509,0.301705,0.303756,0.305663,0.307429,0.309058,0.310555,0.311927,0.313182,0.314327,0.315372,0.316328,0.317204,0.318011,0.318761,0.319464,0.320131,0.320774,0.321401,0.322025,0.322652,0.323292,0.323953,0.324639,0.325358,0.326111,0.326903,0.327734,0.328604,0.32951,0.33045,0.331417,0.332406,0.333406,0.334409,0.335402,0.336372,0.337304,0.338182,0.338987,0.339701,0.340303,0.340772,0.341086,0.341222,0.341157,0.340864,0.340322,0.339503,0.338385,0.336941,0.335147,0.332978,0.330412,0.327423,0.323991,0.320091,0.315703,0.310807,0.305382,0.299408,0.292868,0.285743,0.278017,0.269671,0.260689,0.251055,0.240752,0.229764,0.218073,0.205663,0.192515,0.178611,0.163933,0.14846,0.132171,0.115046,0.097062,0.0781975,0.0584302,0.0377385,0.0161019
0.16755,0.175248,0.181866,0.187524,0.192332,0.196398,0.199826,0.202712,0.205144,0.207209,0.208981,0.210532,0.211926,0.213218,0.214459,0.215694,0.216958,0.218282,0.219694,0.221211,0.222849,0.224618,0.226523,0.228565,0.230742,0.233049,0.235477,0.238016,0.240653,0.243374,0.246164,0.249005,0.251883,0.254778,0.257675,0.260557,0.263408,0.266212,0.268956,0.271627,0.274213,0.276704,0.279092,0.281368,0.283529,0.28557,0.287489,0.289286,0.290962,0.292519,0.293963,0.295297,0.296529,0.297668,0.298721,0.299698,0.300611,0.301469,0.302286,0.303072,0.303839,0.3046,0.305366,0.306148,0.306957,0.307804,0.308697,0.309645,0.310656,0.311734,0.312886,0.314114,0.31542,0.316804,0.318265,0.319799,0.321401,0.323064,0.32478,0.326538,0.328325,0.330127,0.331929,0.333712,0.335457,0.337144,0.338751,0.340253,0.341626,0.342845,0.343883,0.344713,0.345307,0.345636,0.345672,0.345387,0.344753,0.34374,0.342321,0.340469,0.338158,0.33536,0.332052,0.328209,0.323808,0.318827,0.313244,0.30704,0.300194,0.292689,0.284507,0.27563,0.266042,0.255728,0.244671,0.232855,0.220265,0.206885,0.192699,0.177691,0.161844,0.145142,0.127566,0.109101,0.0897284,0.0694324,0.0481974,0.0260092
0.190298,0.19677,0.202196,0.206692,0.21037,0.213339,0.2157,0.217547,0.21897,0.220052,0.220868,0.221487,0.221972,0.222377,0.222753,0.22314,0.223577,0.224091,0.224708,0.225447,0.226321,0.22734,0.228507,0.229825,0.231289,0.232895,0.234633,0.236492,0.238461,0.240523,0.242665,0.244869,0.247118,0.249397,0.251689,0.253976,0.256244,0.258479,0.260666,0.262794,0.264852,0.266831,0.268723,0.270522,0.272224,0.273827,0.27533,0.276733,0.278039,0.279252,0.280378,0.281423,0.282396,0.283306,0.284163,0.284978,0.285763,0.28653,0.287292,0.288061,0.288851,0.289674,0.290543,0.291469,0.292464,0.293538,0.294701,0.295961,0.297325,0.2988,0.300389,0.302095,0.30392,0.305862,0.307918,0.310085,0.312356,0.314721,0.317172,0.319694,0.322273,0.324894,0.327537,0.330182,0.332807,0.335389,0.337901,0.340318,0.342611,0.344752,0.34671,0.348454,0.349952,0.351174,0.352086,0.352657,0.352854,0.352645,0.352,0.350887,0.349276,0.347139,0.344447,0.341174,0.337293,0.332781,0.327614,0.32177,0.315228,0.30797,0.299975,0.291227,0.28171,0.271407,0.260303,0.248385,0.235637,0.222046,0.207599,0.192281,0.17608,0.158982,0.140974,0.122043,0.102178,0.0813661,0.0595986,0.0368669
0.214249,0.219404,0.223545,0.22679,0.229251,0.231038,0.232249,0.232981,0.233321,0.23335,0.233144,0.23277,0.232289,0.231756,0.231217,0.230714,0.230282,0.229949,0.229739,0.229669,0.229753,0.229998,0.230407,0.230982,0.231718,0.232609,0.233645,0.234815,0.236106,0.237503,0.238991,0.240553,0.242172,0.243832,0.245516,0.247208,0.248894,0.250559,0.25219,0.253777,0.255309,0.256778,0.258177,0.259501,0.260748,0.261915,0.263004,0.264016,0.264956,0.265829,0.26664,0.2674,0.268117,0.268802,0.269466,0.270121,0.270781,0.271459,0.272169,0.272924,0.273739,0.274626,0.2756,0.276672,0.277854,0.279157,0.280592,0.282165,0.283886,0.285759,0.287788,0.289975,0.292321,0.294825,0.297482,0.300286,0.303231,0.306306,0.309498,0.312793,0.316175,0.319624,0.32312,0.32664,0.330159,0.333651,0.337086,0.340436,0.343668,0.34675,0.349649,0.35233,0.354758,0.356896,0.35871,0.360163,0.361219,0.361843,0.361999,0.361654,0.360774,0.359327,0.357281,0.354607,0.351277,0.347263,0.34254,0.337085,0.330876,0.32389,0.31611,0.307517,0.298095,0.287828,0.276702,0.264704,0.25182,0.238039,0.223349,0.20774,0.191202,0.173724,0.155298,0.135914,0.115566,0.0942474,0.0719531,0.0486806