-0,-0,-0,-0,-0,-0,-0,-0,-0,-0,-0,-0,-0,-0,-0,-0,-0,-0,-0,-0,-0,-0,-0,-0,-0,-0,-0,-0,-0,-0,-0,-0,-0,-0,-0,-0,-0,-0,-0,-0,-0,-0,-0,-0,-0,-0,-0,-0,-0,-0,-0,-0,-0,-0,-0,-0,-0,-0,-0,-0,-0,-0,-0,-0,-0,-0,-0,-0,-0,-0,-0,-0,-0,-0,-0,-0,-0,-0,-0,-0,-0,-0,-0,-0,-0,-0,-0,-0,-0,-0,-0,-0,-0,-0,-0,-0,-0,-0,-0,-0,-0,-0,-0,-0,-0,-0,-0,-0,-0,-0,-0,-0,-0,-0,-0,-0,-0,-0,-0,-0,-0,-0,-0,-0,-0,-0,-0,-0
-0,2.85975e-08,1.08384e-07,2.06461e-07,2.96577e-07,3.61734e-07,3.91737e-07,3.80869e-07,3.26297e-07,2.27074e-07,8.34955e-08,-1.03314e-07,-3.31678e-07,-5.99559e-07,-9.04692e-07,-1.24468e-06,-1.61706e-06,-2.01937e-06,-2.44915e-06,-2.904e-06,-3.3816e-06,-3.87969e-06,-4.39612e-06,-4.92881e-06,-5.47579e-06,-6.03517e-06,-6.60516e-06,-7.18405e-06,-7.77019e-06,-8.36204e-06,-8.9581e-06,-9.55693e-06,-1.01572e-05,-1.07574e-05,-1.13565e-05,-1.1953e-05,-1.25458e-05,-1.31336e-05,-1.37152e-05,-1.42894e-05,-1.48551e-05,-1.5411e-05,-1.59559e-05,-1.64886e-05,-1.7008e-05,-1.75128e-05,-1.80018e-05,-1.84738e-05,-1.89275e-05,-1.93618e-05,-1.97754e-05,-2.01671e-05,-2.05357e-05,-2.08799e-05,-2.11986e-05,-2.14906e-05,-2.17548e-05,-2.19901e-05,-2.21955e-05,-2.23698e-05,-2.25122e-05,-2.26219e-05,-2.26979e-05,-2.27395e-05,-2.27461e-05,-2.27171e-05,-2.26522e-05,-2.25508e-05,-2.24128e-05,-2.22382e-05,-2.20269e-05,-2.1779e-05,-2.14949e-05,-2.11751e-05,-2.08201e-05,-2.04306e-05,-2.00076e-05,-1.9552e-05,-1.90652e-05,-1.85484e-05,-1.80032e-05,-1.74313e-05,-1.68343e-05,-1.62143e-05,-1.55734e-05,-1.49137e-05,-1.42375e-05,-1.35473e-05,-1.28456e-05,-1.2135e-05,-1.14182e-05,-1.06979e-05,-9.97697e-06,-9.25818e-06,-8.5444e-06,-7.83848e-06,-7.14325e-06,-6.46154e-06,-5.79612e-06,-5.14971e-06,-4.52494e-06,-3.92437e-06,-3.35046e-06,-2.80554e-06,-2.29179e-06,-1.81127e-06,-1.36585e-06,-9.57223e-07,-5.86891e-07,-2.5613e-07,3.40191e-08,2.82775e-07,4.89644e-07,6.5445e-07,7.77376e-07,8.59014e-07,9.0043e-07,9.03253e-07,8.69793e-07,8.032e-07,7.07696e-07,5.88898e-07,4.54272e-07,3.13778e-07,1.80672e-07,7.21139e-08,7.85512e-09,-0
-0,1.08483e-07,3.46161e-07,6.19718e-07,8.55176e-07,1.00048e-06,1.02146e-06,8.9715e-07,6.15927e-07,1.72776e-07,-4.32697e-07,-1.19764e-06,-2.11694e-06,-3.18394e-06,-4.39093e-06,-5.72955e-06,-7.19103e-06,-8.76647e-06,-1.04469e-05,-1.22235e-05,-1.40877e-05,-1.60309e-05,-1.8045e-05,-2.01222e-05,-2.22549e-05,-2.44358e-05,-2.66582e-05,-2.89153e-05,-3.12008e-05,-3.35085e-05,-3.58327e-05,-3.81678e-05,-4.05082e-05,-4.28486e-05,-4.51841e-05,-4.75094e-05,-4.98198e-05,-5.21104e-05,-5.43764e-05,-5.6613e-05,-5.88156e-05,-6.09793e-05,-6.30996e-05,-6.51718e-05,-6.7191e-05,-6.91526e-05,-7.10518e-05,-7.28839e-05,-7.46442e-05,-7.63277e-05,-7.793e-05,-7.94461e-05,-8.08715e-05,-8.22015e-05,-8.34316e-05,-8.45574e-05,-8.55746e-05,-8.64789e-05,-8.72664e-05,-8.79332e-05,-8.84759e-05,-8.8891e-05,-8.91755e-05,-8.93267e-05,-8.93422e-05,-8.92199e-05,-8.89583e-05,-8.8556e-05,-8.80123e-05,-8.7327e-05,-8.65002e-05,-8.55327e-05,-8.44256e-05,-8.31807e-05,-8.18005e-05,-8.02879e-05,-7.86463e-05,-7.68798e-05,-7.49932e-05,-7.29916e-05,-7.08809e-05,-6.86675e-05,-6.63582e-05,-6.39606e-05,-6.14826e-05,-5.89326e-05,-5.63194e-05,-5.36524e-05,-5.09411e-05,-4.81956e-05,-4.5426e-05,-4.26429e-05,-3.98568e-05,-3.70785e-05,-3.43189e-05,-3.15888e-05,-2.8899e-05,-2.62602e-05,-2.36831e-05,-2.11778e-05,-1.87544e-05,-1.64226e-05,-1.41917e-05,-1.20705e-05,-1.00673e-05,-8.18985e-06,-6.44514e-06,-4.83954e-06,-3.37862e-06,-2.06709e-06,-9.0874e-07,9.36802e-08,9.38536e-07,1.62545e-06,2.15544e-06,2.53114e-06,2.75699e-06,2.8396e-06,2.78811e-06,2.61476e-06,2.33556e-06,1.97122e-06,1.54833e-06,1.10073e-06,6.7079e-07,3.09489e-07,7.19682e-08,-0
-0,2.07021e-07,6.20747e-07,1.0688e-06,1.41839e-06,1.57341e-06,1.468e-06,1.05972e-06,3.23713e-07,-7.51957e-07,-2.16973e-06,-3.92518e-06,-6.00891e-06,-8.40801e-06,-1.11071e-05,-1.40893e-05,-1.73364e-05,-2.08301e-05,-2.45515e-05,-2.8482e-05,-3.26031e-05,-3.68969e-05,-4.13458e-05,-4.59328e-05,-5.06416e-05,-5.54566e-05,-6.03624e-05,-6.53447e-05,-7.03895e-05,-7.54834e-05,-8.06133e-05,-8.57669e-05,-9.09321e-05,-9.60971e-05,-0.000101251,-0.000106381,-0.000111478,-0.000116531,-0.000121528,-0.000126459,-0.000131315,-0.000136083,-0.000140755,-0.000145319,-0.000149765,-0.000154083,-0.000158261,-0.00016229,-0.00016616,-0.000169859,-0.000173377,-0.000176705,-0.000179831,-0.000182746,-0.00018544,-0.000187903,-0.000190127,-0.000192101,-0.000193817,-0.000195268,-0.000196445,-0.000197341,-0.00019795,-0.000198266,-0.000198284,-0.000197999,-0.000197409,-0.00019651,-0.000195301,-0.000193783,-0.000191954,-0.000189818,-0.000187376,-0.000184634,-0.000181595,-0.000178268,-0.000174658,-0.000170777,-0.000166633,-0.000162238,-0.000157606,-0.000152749,-0.000147684,-0.000142425,-0.000136992,-0.000131401,-0.000125673,-0.000119826,-0.000113884,-0.000107866,-0.000101795,-9.56934e-05,-8.95851e-05,-8.34928e-05,-7.74402e-05,-7.14507e-05,-6.55477e-05,-5.97544e-05,-5.40936e-05,-4.85875e-05,-4.32579e-05,-3.81257e-05,-3.3211e-05,-2.85327e-05,-2.41088e-05,-1.99557e-05,-1.60888e-05,-1.25215e-05,-9.26577e-06,-6.33154e-06,-3.72675e-06,-1.45708e-06,4.74294e-07,2.06693e-06,3.32347e-06,4.25004e-06,4.8567e-06,5.1581e-06,5.17426e-06,4.9315e-06,4.46375e-06,3.814e-06,3.03615e-06,2.19683e-06,1.37681e-06,6.70466e-07,1.80201e-07,-0
-0,2.98143e-07,8.58515e-07,1.42132e-06,1.78941e-06,1.81843e-06,1.40707e-06,4.8813e-07,-9.79256e-07,-3.01583e-06,-5.62717e-06,-8.80753e-06,-1.25428e-05,-1.68127e-05,-2.15928e-05,-2.68553e-05,-3.25708e-05,-3.87085e-05,-4.52372e-05,-5.21255e-05,-5.93423e-05,-6.68572e-05,-7.46401e-05,-8.26623e-05,-9.08955e-05,-9.93128e-05,-0.000107888,-0.000116596,-0.000125412,-0.000134314,-0.000143278,-0.000152282,-0.000161306,-0.000170329,-0.000179331,-0.000188293,-0.000197194,-0.000206016,-0.00021474,-0.000223348,-0.000231821,-0.000240141,-0.00024829,-0.000256248,-0.000263999,-0.000271523,-0.000278803,-0.00028582,-0.000292555,-0.000298992,-0.000305111,-0.000310895,-0.000316327,-0.000321388,-0.000326063,-0.000330333,-0.000334184,-0.0003376,-0.000340566,-0.000343068,-0.000345092,-0.000346628,-0.000347663,-0.000348188,-0.000348195,-0.000347676,-0.000346626,-0.00034504,-0.000342917,-0.000340255,-0.000337056,-0.000333323,-0.000329062,-0.000324279,-0.000318985,-0.000313189,-0.000306906,-0.000300152,-0.000292945,-0.000285303,-0.000277251,-0.000268811,-0.00026001,-0.000250875,-0.000241438,-0.000231728,-0.00022178,-0.000211628,-0.000201309,-0.000190858,-0.000180315,-0.000169719,-0.000159109,-0.000148524,-0.000138007,-0.000127596,-0.000117332,-0.000107255,-9.74039e-05,-8.78168e-05,-7.85311e-05,-6.95826e-05,-6.10055e-05,-5.28326e-05,-4.50943e-05,-3.78189e-05,-3.10324e-05,-2.47578e-05,-1.90153e-05,-1.38216e-05,-9.1901e-06,-5.13013e-06,-1.64671e-06,1.25985e-06,3.59459e-06,5.36842e-06,6.59902e-06,7.31168e-06,7.54057e-06,7.33011e-06,6.7367e-06,5.83079e-06,4.69909e-06,3.44681e-06,2.19918e-06,1.10116e-06,3.13101e-07,-0
-0,3.64813e-07,1.007e-06,1.57992e-06,1.82132e-06,1.53766e-06,5.91148e-07,-1.11139e-06,-3.6279e-06,-6.98882e-06,-1.12034e-05,-1.62646e-05,-2.21531e-05,-2.88407e-05,-3.62923e-05,-4.44681e-05,-5.33251e-05,-6.28185e-05,-7.29021e-05,-8.35296e-05,-9.46546e-05,-0.000106232,-0.000118216,-0.000130564,-0.000143233,-0.000156183,-0.000169373,-0.000182765,-0.000196322,-0.000210009,-0.000223791,-0.000237634,-0.000251505,-0.000265374,-0.000279208,-0.000292979,-0.000306655,-0.000320207,-0.000333607,-0.000346826,-0.000359836,-0.000372607,-0.000385112,-0.000397323,-0.000409211,-0.000420749,-0.000431908,-0.00044266,-0.000452978,-0.000462834,-0.0004722,-0.000481049,-0.000489354,-0.000497089,-0.000504228,-0.000510746,-0.000516619,-0.000521822,-0.000526335,-0.000530135,-0.000533204,-0.000535523,-0.000537075,-0.000537846,-0.000537823,-0.000536996,-0.000535357,-0.0005329,-0.000529621,-0.00052552,-0.000520599,-0.000514864,-0.000508322,-0.000500986,-0.000492868,-0.000483988,-0.000474366,-0.000464026,-0.000452994,-0.000441303,-0.000428985,-0.000416078,-0.00040262,-0.000388655,-0.000374228,-0.000359387,-0.000344181,-0.000328665,-0.000312892,-0.000296918,-0.000280802,-0.000264602,-0.000248379,-0.000232192,-0.000216104,-0.000200174,-0.000184464,-0.000169034,-0.000153943,-0.000139248,-0.000125006,-0.000111271,-9.80943e-05,-8.55258e-05,-7.36113e-05,-6.23932e-05,-5.19106e-05,-4.21981e-05,-3.32858e-05,-2.51988e-05,-1.79569e-05,-1.15736e-05,-6.05634e-06,-1.4049e-06,2.38867e-06,5.34123e-06,7.47961e-06,8.84185e-06,9.4788e-06,9.45591e-06,8.85541e-06,7.77873e-06,6.34916e-06,4.71441e-06,3.04861e-06,1.55296e-06,4.54155e-07,-0
-0,3.96528e-07,1.0307e-06,1.4756e-06,1.40706e-06,5.84147e-07,-1.16641e-06,-3.96322e-06,-7.88109e-06,-1.29601e-05,-1.92128e-05,-2.66308e-05,-3.5189e-05,-4.48502e-05,-5.55678e-05,-6.72885e-05,-7.99544e-05,-9.35046e-05,-0.000107876,-0.000123006,-0.00013883,-0.000155286,-0.000172312,-0.000189846,-0.000207831,-0.000226209,-0.000244924,-0.000263923,-0.000283153,-0.000302564,-0.000322107,-0.000341734,-0.0003614,-0.000381059,-0.000400668,-0.000420182,-0.000439561,-0.000458762,-0.000477744,-0.000496466,-0.000514887,-0.000532968,-0.000550668,-0.000567947,-0.000584765,-0.000601083,-0.000616861,-0.000632059,-0.000646637,-0.000660558,-0.000673782,-0.000686271,-0.000697986,-0.000708892,-0.000718952,-0.000728131,-0.000736394,-0.00074371,-0.000750048,-0.000755377,-0.000759671,-0.000762904,-0.000765055,-0.000766102,-0.000766029,-0.000764821,-0.000762467,-0.00075896,-0.000754295,-0.000748472,-0.000741494,-0.00073337,-0.000724112,-0.000713735,-0.00070226,-0.000689712,-0.000676121,-0.00066152,-0.000645949,-0.00062945,-0.00061207,-0.000593861,-0.00057488,-0.000555184,-0.000534839,-0.000513911,-0.000492471,-0.000470591,-0.000448349,-0.000425823,-0.000403094,-0.000380244,-0.000357356,-0.000334516,-0.000311809,-0.000289319,-0.000267132,-0.000245331,-0.000223998,-0.000203215,-0.000183059,-0.000163606,-0.000144929,-0.000127095,-0.000110168,-9.42087e-05,-7.92701e-05,-6.54006e-05,-5.26418e-05,-4.10285e-05,-3.05878e-05,-2.13384e-05,-1.32898e-05,-6.44163e-06,-7.82533e-07,3.71114e-06,7.07655e-06,9.36601e-06,1.06489e-05,1.10138e-05,1.0571e-05,9.45539e-06,7.82938e-06,5.88591e-06,3.85119e-06,1.9868e-06,5.91035e-07,-0
-0,3.86981e-07,9.06322e-07,1.06082e-06,4.70437e-07,-1.14919e-06,-4.00408e-06,-8.23636e-06,-1.39363e-05,-2.11526e-05,-2.99006e-05,-4.01692e-05,-5.19272e-05,-6.51272e-05,-7.97101e-05,-9.56079e-05,-0.000112746,-0.000131047,-0.000150429,-0.000170809,-0.000192106,-0.000214237,-0.00023712,-0.000260677,-0.000284829,-0.000309502,-0.000334621,-0.000360115,-0.000385915,-0.000411953,-0.000438165,-0.000464486,-0.000490856,-0.000517213,-0.000543499,-0.000569655,-0.000595626,-0.000621354,-0.000646784,-0.000671862,-0.000696533,-0.000720742,-0.000744437,-0.000767563,-0.000790067,-0.000811896,-0.000832996,-0.000853315,-0.0008728,-0.000891399,-0.000909061,-0.000925734,-0.000941369,-0.000955917,-0.000969329,-0.000981559,-0.000992562,-0.0010023,-0.00101072,-0.00101779,-0.00102348,-0.00102775,-0.00103058,-0.00103193,-0.00103178,-0.00103012,-0.00102693,-0.0010222,-0.00101593,-0.00100812,-0.000998766,-0.000987887,-0.000975497,-0.000961619,-0.000946279,-0.000929512,-0.000911357,-0.00089186,-0.000871071,-0.000849048,-0.000825853,-0.000801556,-0.00077623,-0.000749955,-0.000722814,-0.000694897,-0.000666296,-0.00063711,-0.000607437,-0.000577384,-0.000547055,-0.000516561,-0.000486012,-0.00045552,-0.000425196,-0.000395154,-0.000365505,-0.00033636,-0.000307828,-0.000280015,-0.000253024,-0.000226955,-0.000201903,-0.000177959,-0.000155206,-0.000133724,-0.000113582,-9.48449e-05,-7.75668e-05,-6.17933e-05,-4.75599e-05,-3.4891e-05,-2.3799e-05,-1.42832e-05,-6.3285e-06,9.59473e-08,5.03842e-06,8.56653e-06,1.07694e-05,1.17601e-05,1.16787e-05,1.06948e-05,9.01179e-06,6.86952e-06,4.54841e-06,2.37279e-06,7.14907e-07,-0
-0,3.32498e-07,6.19073e-07,3.03768e-07,-1.04141e-06,-3.73862e-06,-8.02255e-06,-1.40558e-05,-2.19418e-05,-3.17359e-05,-4.34548e-05,-5.70837e-05,-7.25838e-05,-8.98966e-05,-0.000108949,-0.000129658,-0.000151931,-0.00017567,-0.000200775,-0.000227143,-0.00025467,-0.000283254,-0.000312792,-0.000343185,-0.000374333,-0.00040614,-0.000438514,-0.000471364,-0.000504601,-0.000538139,-0.000571894,-0.000605786,-0.000639735,-0.000673662,-0.000707494,-0.000741154,-0.000774569,-0.000807668,-0.000840379,-0.00087263,-0.000904352,-0.000935476,-0.000965931,-0.000995649,-0.00102456,-0.0010526,-0.00107969,-0.00110578,-0.00113078,-0.00115465,-0.0011773,-0.00119868,-0.00121872,-0.00123735,-0.00125453,-0.00127018,-0.00128425,-0.0012967,-0.00130745,-0.00131648,-0.00132372,-0.00132914,-0.00133271,-0.00133439,-0.00133415,-0.00133197,-0.00132783,-0.00132172,-0.00131363,-0.00130357,-0.00129154,-0.00127756,-0.00126165,-0.00124383,-0.00122415,-0.00120264,-0.00117936,-0.00115436,-0.00112771,-0.00109949,-0.00106977,-0.00103864,-0.00100619,-0.00097253,-0.000937762,-0.000902,-0.000865361,-0.00082797,-0.000789954,-0.000751446,-0.00071258,-0.000673496,-0.000634334,-0.000595234,-0.000556341,-0.000517796,-0.000479741,-0.000442318,-0.000405662,-0.000369911,-0.000335194,-0.000301638,-0.000269363,-0.000238485,-0.000209109,-0.000181335,-0.000155253,-0.000130943,-0.000108474,-8.79045e-05,-6.92783e-05,-5.26265e-05,-3.7965e-05,-2.52928e-05,-1.45914e-05,-5.82241e-06,1.07402e-06,6.18135e-06,9.60918e-06,1.14959e-05,1.2012e-05,1.13631e-05,9.79413e-06,7.59299e-06,5.0952e-06,2.68867e-06,8.19543e-07,-0
-0,2.3106e-07,1.59934e-07,-8.16077e-07,-3.16394e-06,-7.23689e-06,-1.32931e-05,-2.15116e-05,-3.20059e-05,-4.48357e-05,-6.00166e-05,-7.75287e-05,-9.73239e-05,-0.000119331,-0.000143463,-0.000169618,-0.000197686,-0.000227548,-0.000259082,-0.000292165,-0.000326669,-0.00036247,-0.000399442,-0.000437464,-0.000476414,-0.000516175,-0.000556631,-0.000597671,-0.000639184,-0.000681066,-0.000723211,-0.000765519,-0.000807892,-0.000850233,-0.000892446,-0.00093444,-0.000976123,-0.0010174,-0.00105819,-0.0010984,-0.00113795,-0.00117674,-0.00121469,-0.00125171,-0.00128773,-0.00132264,-0.00135638,-0.00138884,-0.00141996,-0.00144965,-0.00147782,-0.0015044,-0.0015293,-0.00155246,-0.00157379,-0.00159322,-0.00161068,-0.0016261,-0.00163943,-0.0016506,-0.00165955,-0.00166624,-0.00167062,-0.00167265,-0.00167229,-0.00166953,-0.00166433,-0.00165668,-0.00164659,-0.00163404,-0.00161905,-0.00160164,-0.00158183,-0.00155967,-0.00153519,-0.00150844,-0.0014795,-0.00144843,-0.00141532,-0.00138025,-0.00134333,-0.00130465,-0.00126435,-0.00122254,-0.00117935,-0.00113493,-0.00108942,-0.00104297,-0.00099574,-0.000947892,-0.000899593,-0.000851013,-0.000802325,-0.000753703,-0.000705324,-0.000657362,-0.000609992,-0.000563386,-0.000517715,-0.000473144,-0.000429835,-0.000387943,-0.000347616,-0.000308995,-0.000272212,-0.000237388,-0.000204635,-0.00017405,-0.000145719,-0.000119713,-9.60869e-05,-7.48787e-05,-5.61081e-05,-3.97747e-05,-2.58564e-05,-1.43076e-05,-5.05677e-06,1.99558e-06,6.97981e-06,1.006e-05,1.14374e-05,1.13538e-05,1.00961e-05,8.00054e-06,5.45758e-06,2.91815e-06,9.00607e-07,-0
-0,8.17039e-08,-4.76162e-07,-2.31115e-06,-5.91978e-06,-1.16789e-05,-1.98643e-05,-3.06666e-05,-4.42058e-05,-6.05425e-05,-7.9689e-05,-0.000101618,-0.00012627,-0.000153561,-0.000183386,-0.000215625,-0.000250147,-0.000286812,-0.000325477,-0.000365992,-0.000408209,-0.000451978,-0.00049715,-0.000543578,-0.000591119,-0.00063963,-0.000688974,-0.000739015,-0.000789621,-0.000840665,-0.00089202,-0.000943565,-0.00099518,-0.00104675,-0.00109815,-0.00114928,-0.00120002,-0.00125027,-0.00129991,-0.00134884,-0.00139694,-0.00144413,-0.00149028,-0.0015353,-0.00157908,-0.00162152,-0.00166251,-0.00170195,-0.00173975,-0.0017758,-0.00181,-0.00184225,-0.00187247,-0.00190055,-0.00192641,-0.00194996,-0.00197111,-0.00198979,-0.00200592,-0.00201942,-0.00203023,-0.00203829,-0.00204355,-0.00204596,-0.00204547,-0.00204207,-0.00203571,-0.00202639,-0.00201409,-0.00199883,-0.00198062,-0.00195947,-0.00193542,-0.00190851,-0.0018788,-0.00184635,-0.00181125,-0.00177357,-0.00173341,-0.00169089,-0.00164612,-0.00159923,-0.00155037,-0.00149968,-0.00144732,-0.00139347,-0.00133828,-0.00128196,-0.00122468,-0.00116664,-0.00110805,-0.0010491,-0.000990011,-0.000930985,-0.000872235,-0.000813972,-0.000756405,-0.000699741,-0.000644185,-0.000589937,-0.000537189,-0.000486129,-0.000436935,-0.000389777,-0.000344812,-0.000302186,-0.000262034,-0.000224473,-0.000189607,-0.00015752,-0.000128279,-0.00010193,-7.84978e-05,-5.7983e-05,-4.03604e-05,-2.55774e-05,-1.35511e-05,-4.16596e-06,2.72887e-06,7.32309e-06,9.84857e-06,1.05833e-05,9.85578e-06,8.04987e-06,5.61037e-06,3.04957e-06,9.55132e-07,-0
-0,-1.15852e-07,-1.29158e-06,-4.18816e-06,-9.32213e-06,-1.70862e-05,-2.77672e-05,-4.15624e-05,-5.85934e-05,-7.89187e-05,-0.000102544,-0.000129432,-0.00015951,-0.000192678,-0.000228813,-0.000267775,-0.000309411,-0.000353558,-0.000400048,-0.000448708,-0.000499364,-0.000551841,-0.000605964,-0.000661562,-0.000718465,-0.000776507,-0.000835524,-0.000895357,-0.000955851,-0.00101685,-0.00107822,-0.00113979,-0.00120144,-0.00126302,-0.0013244,-0.00138544,-0.00144601,-0.00150598,-0.00156521,-0.00162359,-0.00168098,-0.00173726,-0.0017923,-0.00184597,-0.00189816,-0.00194874,-0.00199759,-0.00204458,-0.0020896,-0.00213253,-0.00217325,-0.00221165,-0.0022476,-0.00228101,-0.00231177,-0.00233977,-0.00236491,-0.0023871,-0.00240624,-0.00242226,-0.00243508,-0.00244463,-0.00245083,-0.00245365,-0.00245302,-0.00244892,-0.00244132,-0.00243019,-0.00241553,-0.00239734,-0.00237564,-0.00235047,-0.00232184,-0.00228983,-0.00225449,-0.00221589,-0.00217414,-0.00212934,-0.00208159,-0.00203104,-0.00197781,-0.00192207,-0.00186398,-0.00180372,-0.00174147,-0.00167743,-0.00161181,-0.00154482,-0.00147669,-0.00140765,-0.00133793,-0.00126778,-0.00119744,-0.00112716,-0.00105718,-0.000987754,-0.000919132,-0.000851555,-0.000785266,-0.000720499,-0.000657482,-0.000596436,-0.000537572,-0.000481089,-0.000427173,-0.000375998,-0.000327721,-0.000282482,-0.000240402,-0.000201583,-0.000166104,-0.00013402,-0.000105362,-8.01308e-05,-5.83005e-05,-3.98115e-05,-2.45701e-05,-1.24454e-05,-3.2661e-06,3.18243e-06,7.16231e-06,8.98699e-06,9.02588e-06,7.70949e-06,5.53533e-06,3.07474e-06,9.81142e-07,-0
-0,-3.6145e-07,-2.28687e-06,-6.44975e-06,-1.33773e-05,-2.34701e-05,-3.70195e-05,-5.42236e-05,-7.5201e-05,-0.000100004,-0.000128628,-0.000161024,-0.000197102,-0.000236745,-0.00027981,-0.000326135,-0.000375542,-0.000427847,-0.000482853,-0.000540364,-0.000600178,-0.000662093,-0.000725908,-0.000791425,-0.000858448,-0.000926784,-0.000996244,-0.00106664,-0.0011378,-0.00120954,-0.00128168,-0.00135407,-0.00142652,-0.00149888,-0.001571,-0.0016427,-0.00171384,-0.00178426,-0.00185382,-0.00192235,-0.00198971,-0.00205576,-0.00212035,-0.00218332,-0.00224454,-0.00230387,-0.00236115,-0.00241625,-0.00246902,-0.00251934,-0.00256705,-0.00261203,-0.00265415,-0.00269327,-0.00272928,-0.00276205,-0.00279146,-0.00281742,-0.00283981,-0.00285853,-0.0028735,-0.00288464,-0.00289187,-0.00289513,-0.00289436,-0.00288952,-0.00288059,-0.00286753,-0.00285035,-0.00282904,-0.00280363,-0.00277415,-0.00274065,-0.00270318,-0.00266182,-0.00261667,-0.00256782,-0.0025154,-0.00245954,-0.0024004,-0.00233814,-0.00227293,-0.00220497,-0.00213447,-0.00206163,-0.0019867,-0.0019099,-0.0018315,-0.00175175,-0.00167092,-0.00158927,-0.0015071,-0.00142469,-0.00134231,-0.00126027,-0.00117885,-0.00109833,-0.001019,-0.000941148,-0.000865035,-0.00079093,-0.000719089,-0.000649758,-0.000583168,-0.000519536,-0.000459064,-0.000401935,-0.000348312,-0.000298337,-0.000252127,-0.000209778,-0.000171354,-0.000136892,-0.000106397,-7.98406e-05,-5.71581e-05,-3.82456e-05,-2.29575e-05,-1.1103e-05,-2.44305e-06,3.31378e-06,6.51543e-06,7.57108e-06,6.95638e-06,5.2195e-06,2.98808e-06,9.77377e-07,-0
-0,-6.54653e-07,-3.46129e-06,-9.0957e-06,-1.80867e-05,-3.08349e-05,-4.7629e-05,-6.86622e-05,-9.40454e-05,-0.00012382,-0.000157968,-0.000196423,-0.00023908,-0.000285799,-0.000336415,-0.000390742,-0.000448579,-0.000509713,-0.000573923,-0.000640984,-0.000710666,-0.000782741,-0.000856979,-0.000933153,-0.00101104,-0.00109042,-0.00117108,-0.0012528,-0.00133538,-0.00141861,-0.00150229,-0.00158624,-0.00167025,-0.00175414,-0.00183773,-0.00192083,-0.00200326,-0.00208485,-0.00216542,-0.0022448,-0.00232282,-0.00239929,-0.00247407,-0.00254697,-0.00261783,-0.00268648,-0.00275276,-0.0028165,-0.00287754,-0.00293573,-0.0029909,-0.0030429,-0.00309159,-0.0031368,-0.00317841,-0.00321627,-0.00325025,-0.00328022,-0.00330607,-0.00332768,-0.00334496,-0.0033578,-0.00336613,-0.00336987,-0.00336897,-0.00336337,-0.00335304,-0.00333795,-0.0033181,-0.00329349,-0.00326416,-0.00323012,-0.00319144,-0.00314819,-0.00310046,-0.00304835,-0.00299197,-0.00293148,-0.00286702,-0.00279877,-0.00272691,-0.00265165,-0.0025732,-0.00249182,-0.00240773,-0.00232122,-0.00223254,-0.00214199,-0.00204987,-0.00195647,-0.00186213,-0.00176714,-0.00167185,-0.00157658,-0.00148165,-0.00138741,-0.00129417,-0.00120227,-0.00111202,-0.00102375,-0.000937743,-0.000854305,-0.000773714,-0.000696238,-0.000622125,-0.000551607,-0.000484895,-0.000422177,-0.000363616,-0.000309351,-0.000259489,-0.000214108,-0.000173253,-0.000136933,-0.000105118,-7.77402e-05,-5.46856e-05,-3.57953e-05,-2.08599e-05,-9.617e-06,-1.74699e-06,3.13132e-06,5.46535e-06,5.77406e-06,4.65396e-06,2.78593e-06,9.43096e-07,-0
-0,-9.94841e-07,-4.81328e-06,-1.21238e-05,-2.34481e-05,-3.91787e-05,-5.95955e-05,-8.48803e-05,-0.000115131,-0.000150373,-0.000190573,-0.000235644,-0.000285458,-0.000339854,-0.000398643,-0.000461612,-0.000528533,-0.000599167,-0.000673263,-0.000750568,-0.000830824,-0.000913771,-0.000999153,-0.00108671,-0.0011762,-0.00126736,-0.00135995,-0.00145374,-0.00154848,-0.00164394,-0.00173991,-0.00183615,-0.00193245,-0.0020286,-0.00212438,-0.00221959,-0.00231403,-0.00240748,-0.00249975,-0.00259065,-0.00267997,-0.00276752,-0.00285311,-0.00293654,-0.00301763,-0.00309618,-0.003172,-0.00324491,-0.00331473,-0.00338127,-0.00344436,-0.00350381,-0.00355946,-0.00361114,-0.00365869,-0.00370195,-0.00374078,-0.00377502,-0.00380455,-0.00382924,-0.00384897,-0.00386364,-0.00387316,-0.00387744,-0.00387641,-0.00387003,-0.00385824,-0.00384103,-0.00381839,-0.00379032,-0.00375686,-0.00371803,-0.00367391,-0.00362458,-0.00357013,-0.00351069,-0.00344638,-0.00337737,-0.00330384,-0.00322597,-0.00314398,-0.00305811,-0.0029686,-0.00287571,-0.00277974,-0.00268097,-0.00257973,-0.00247632,-0.0023711,-0.0022644,-0.00215659,-0.00204802,-0.00193906,-0.00183009,-0.00172148,-0.0016136,-0.00150683,-0.00140154,-0.0012981,-0.00119684,-0.00109813,-0.0010023,-0.000909655,-0.000820511,-0.00073515,-0.000653834,-0.000576803,-0.000504272,-0.000436429,-0.000373431,-0.000315404,-0.000262438,-0.000214588,-0.000171868,-0.00013425,-0.00010166,-7.39792e-05,-5.10343e-05,-3.25992e-05,-1.83894e-05,-8.0584e-06,-1.19332e-06,2.68976e-06,4.15103e-06,3.83281e-06,2.46607e-06,8.77922e-07,-0
-0,-1.38128e-06,-6.34071e-06,-1.55304e-05,-2.94565e-05,-4.84962e-05,-7.29131e-05,-0.000102872,-0.000138453,-0.000179661,-0.00022644,-0.000278682,-0.000336234,-0.00039891,-0.000466491,-0.00053874,-0.000615399,-0.000696198,-0.000780859,-0.000869097,-0.000960623,-0.00105515,-0.00115239,-0.00125205,-0.00135385,-0.00145752,-0.00156278,-0.00166936,-0.00177699,-0.00188542,-0.00199439,-0.00210365,-0.00221296,-0.00232208,-0.00243076,-0.00253878,-0.0026459,-0.0027519,-0.00285654,-0.00295961,-0.00306088,-0.00316013,-0.00325714,-0.0033517,-0.00344359,-0.00353259,-0.0036185,-0.0037011,-0.00378018,-0.00385555,-0.00392699,-0.00399432,-0.00405734,-0.00411585,-0.00416969,-0.00421867,-0.00426262,-0.00430139,-0.00433482,-0.00436278,-0.00438512,-0.00440175,-0.00441255,-0.00441743,-0.00441631,-0.00440913,-0.00439585,-0.00437645,-0.0043509,-0.00431923,-0.00428145,-0.00423763,-0.00418782,-0.00413212,-0.00407064,-0.00400351,-0.00393089,-0.00385295,-0.00376989,-0.00368193,-0.0035893,-0.00349228,-0.00339113,-0.00328615,-0.00317767,-0.00306601,-0.00295152,-0.00283458,-0.00271554,-0.00259481,-0.00247279,-0.00234987,-0.00222648,-0.00210303,-0.00197994,-0.00185763,-0.00173652,-0.00161703,-0.00149957,-0.00138453,-0.00127231,-0.00116328,-0.00105779,-0.000956198,-0.000858816,-0.000765942,-0.000677849,-0.000594779,-0.000516946,-0.00044453,-0.000377674,-0.000316484,-0.000261024,-0.000211317,-0.000167336,-0.000129006,-9.6201e-05,-6.87368e-05,-4.63714e-05,-2.87998e-05,-1.565e-05,-6.47939e-06,-7.69298e-07,2.07943e-06,2.75228e-06,2.02727e-06,7.81729e-07,-0
-0,-1.81318e-06,-8.04105e-06,-1.93108e-05,-3.61052e-05,-5.87785e-05,-8.75716e-05,-0.000122626,-0.000163998,-0.000211668,-0.000265555,-0.000325523,-0.000391393,-0.000462948,-0.000539941,-0.000622105,-0.000709151,-0.000800779,-0.000896678,-0.000996532,-0.00110002,-0.00120682,-0.00131662,-0.00142909,-0.00154393,-0.00166082,-0.00177946,-0.00189955,-0.00202079,-0.00214289,-0.00226558,-0.00238858,-0.0025116,-0.00263438,-0.00275665,-0.00287816,-0.00299864,-0.00311784,-0.00323551,-0.00335139,-0.00346524,-0.0035768,-0.00368584,-0.00379211,-0.00389537,-0.00399537,-0.00409189,-0.00418469,-0.00427353,-0.00435818,-0.00443843,-0.00451405,-0.00458483,-0.00465055,-0.00471101,-0.00476602,-0.00481539,-0.00485894,-0.0048965,-0.00492792,-0.00495306,-0.00497178,-0.00498396,-0.00498951,-0.00498834,-0.00498038,-0.00496558,-0.00494391,-0.00491537,-0.00487996,-0.00483772,-0.0047887,-0.00473297,-0.00467064,-0.00460183,-0.00452669,-0.00444539,-0.00435813,-0.00426512,-0.00416661,-0.00406286,-0.00395416,-0.00384083,-0.00372319,-0.0036016,-0.00347642,-0.00334804,-0.00321688,-0.00308334,-0.00294787,-0.0028109,-0.00267289,-0.0025343,-0.00239559,-0.00225723,-0.0021197,-0.00198346,-0.00184896,-0.00171668,-0.00158704,-0.0014605,-0.00133747,-0.00121834,-0.00110351,-0.000993326,-0.000888128,-0.000788219,-0.000693875,-0.000605334,-0.0005228,-0.000446439,-0.000376372,-0.000312676,-0.000255381,-0.000204465,-0.000159854,-0.000121415,-8.89553e-05,-6.22183e-05,-4.088e-05,-2.45451e-05,-1.27427e-05,-4.92162e-06,-4.46038e-07,1.41016e-06,1.46898e-06,6.5456e-07,-0
-0,-2.2897e-06,-9.91156e-06,-2.34598e-05,-4.33861e-05,-7.00147e-05,-0.000103557,-0.000144127,-0.000191749,-0.000246376,-0.000307896,-0.000376143,-0.000450907,-0.000531939,-0.000618962,-0.000711673,-0.000809752,-0.000912867,-0.00102067,-0.00113282,-0.00124895,-0.00136873,-0.00149178,-0.00161776,-0.00174634,-0.00187715,-0.00200988,-0.00214418,-0.00227973,-0.00241622,-0.00255332,-0.00269074,-0.00282816,-0.00296529,-0.00310184,-0.00323751,-0.00337201,-0.00350507,-0.0036364,-0.00376573,-0.00389277,-0.00401725,-0.0041389,-0.00425745,-0.00437264,-0.00448419,-0.00459184,-0.00469533,-0.00479441,-0.00488882,-0.00497831,-0.00506264,-0.00514157,-0.00521486,-0.0052823,-0.00534365,-0.00539873,-0.00544733,-0.00548926,-0.00552436,-0.00555245,-0.00557341,-0.0055871,-0.0055934,-0.00559223,-0.00558351,-0.00556719,-0.00554322,-0.00551161,-0.00547236,-0.00542551,-0.00537111,-0.00530926,-0.00524006,-0.00516365,-0.00508019,-0.00498987,-0.00489291,-0.00478954,-0.00468005,-0.00456471,-0.00444384,-0.0043178,-0.00418694,-0.00405165,-0.00391234,-0.00376945,-0.00362341,-0.00347469,-0.00332377,-0.00317114,-0.00301729,-0.00286275,-0.00270801,-0.00255361,-0.00240006,-0.00224788,-0.00209757,-0.00194965,-0.00180462,-0.00166294,-0.0015251,-0.00139153,-0.00126266,-0.00113889,-0.00102059,-0.0009081,-0.000801732,-0.000701752,-0.000608391,-0.000521834,-0.000442224,-0.000369651,-0.000304154,-0.00024572,-0.000194273,-0.000149679,-0.000111736,-8.01754e-05,-5.46567e-05,-3.47625e-05,-1.99955e-05,-9.77445e-06,-3.42893e-06,-1.94813e-07,7.91076e-07,4.96552e-07,-0
-0,-2.81e-06,-1.19493e-05,-2.79716e-05,-5.12901e-05,-8.21924e-05,-0.000120854,-0.000167354,-0.000221683,-0.000283758,-0.000353434,-0.00043051,-0.000514741,-0.000605845,-0.000703508,-0.000807395,-0.00091715,-0.0010324,-0.00115278,-0.00127789,-0.00140735,-0.00154077,-0.00167777,-0.00181796,-0.00196096,-0.0021064,-0.00225391,-0.00240312,-0.00255368,-0.00270523,-0.00285744,-0.00300997,-0.00316247,-0.00331463,-0.00346611,-0.0036166,-0.00376578,-0.00391333,-0.00405896,-0.00420234,-0.00434318,-0.00448118,-0.00461603,-0.00474743,-0.00487509,-0.00499872,-0.00511802,-0.00523272,-0.00534251,-0.00544713,-0.00554631,-0.00563976,-0.00572724,-0.00580847,-0.00588323,-0.00595126,-0.00601234,-0.00606626,-0.0061128,-0.00615179,-0.00618304,-0.0062064,-0.00622172,-0.00622888,-0.00622779,-0.00621834,-0.0062005,-0.00617421,-0.00613947,-0.00609629,-0.00604471,-0.00598478,-0.00591662,-0.00584033,-0.00575606,-0.005664,-0.00556434,-0.00545733,-0.00534323,-0.00522232,-0.00509495,-0.00496144,-0.00482217,-0.00467755,-0.00452801,-0.00437398,-0.00421594,-0.00405438,-0.00388981,-0.00372275,-0.00355374,-0.00338333,-0.00321208,-0.00304056,-0.00286933,-0.00269897,-0.00253005,-0.00236313,-0.00219877,-0.00203751,-0.00187988,-0.00172641,-0.00157758,-0.00143387,-0.00129571,-0.00116352,-0.00103768,-0.000918525,-0.000806362,-0.000701448,-0.000603993,-0.000514158,-0.000432053,-0.000357728,-0.000291177,-0.000232328,-0.000181044,-0.00013712,-0.000100275,-7.01533e-05,-4.63182e-05,-2.82481e-05,-1.53335e-05,-6.87183e-06,-2.06335e-06,-6.32826e-09,3.07891e-07,-0