0,0,0,0,0,0,0,0,0,0,0,0,0,0,0,0,0,0,0,0,0,0,0,0,0,0,0,0,0,0,0,0,0,0,0,0,0,0,0,0,0,0,0,0,0,0,0,0,0,0,0,0,0,0,0,0,0,0,0,0,0,0,0,0,0,0,0,0,0,0,0,0,0,0,0,0,0,0,0,0,0,0,0,0,0,0,0,0,0,0,0,0,0,0,0,0,0,0,0,0,0,0,0,0,0,0,0,0,0,0,0,0,0,0,0,0,0,0,0,0,0,0,0,0,0,0,0,0
0,6.88865e-06,2.19812e-05,3.93521e-05,5.43037e-05,6.35304e-05,6.48629e-05,5.6969e-05,3.91114e-05,1.09713e-05,-2.74762e-05,-7.60502e-05,-0.000134426,-0.00020218,-0.000278824,-0.000363826,-0.000456631,-0.000556671,-0.00066338,-0.000776195,-0.000894567,-0.00101796,-0.00114586,-0.00127776,-0.00141318,-0.00155168,-0.0016928,-0.00183612,-0.00198125,-0.00212779,-0.00227538,-0.00242365,-0.00257227,-0.00272089,-0.00286919,-0.00301685,-0.00316356,-0.00330901,-0.0034529,-0.00359493,-0.00373479,-0.00387219,-0.00400683,-0.00413841,-0.00426663,-0.00439119,-0.00451179,-0.00462813,-0.0047399,-0.00484681,-0.00494855,-0.00504483,-0.00513534,-0.0052198,-0.00529791,-0.0053694,-0.00543398,-0.00549141,-0.00554141,-0.00558376,-0.00561822,-0.00564458,-0.00566264,-0.00567225,-0.00567323,-0.00566546,-0.00564885,-0.00562331,-0.00558878,-0.00554527,-0.00549276,-0.00543132,-0.00536102,-0.00528198,-0.00519433,-0.00509828,-0.00499404,-0.00488187,-0.00476207,-0.00463497,-0.00450094,-0.00436038,-0.00421375,-0.0040615,-0.00390414,-0.00374222,-0.00357628,-0.00340693,-0.00323476,-0.00306042,-0.00288455,-0.00270782,-0.0025309,-0.00235448,-0.00217925,-0.00200589,-0.00183509,-0.00166752,-0.00150387,-0.00134479,-0.0011909,-0.00104283,-0.000901173,-0.000766478,-0.000639275,-0.000520056,-0.000409266,-0.000307311,-0.000214542,-0.00013126,-5.7705e-05,5.94869e-06,5.9597e-05,0.000103216,0.000136871,0.000160727,0.000175069,0.000180315,0.000177045,0.000166037,0.000148308,0.000125172,9.83188e-05,6.98962e-05,4.25951e-05,1.96526e-05,4.56998e-06,0
0,1.13299e-05,3.2535e-05,5.47588e-05,7.12353e-05,7.69413e-05,6.83425e-05,4.31073e-05,-1.64066e-07,-6.21685e-05,-0.00014308,-0.000242689,-0.000360504,-0.000495836,-0.000647854,-0.000815631,-0.000998181,-0.00119448,-0.0014035,-0.0016242,-0.00185557,-0.00209659,-0.0023463,-0.00260375,-0.00286803,-0.00313826,-0.00341359,-0.0036932,-0.00397633,-0.0042622,-0.00455011,-0.00483933,-0.00512921,-0.00541907,-0.00570827,-0.00599619,-0.0062822,-0.00656571,-0.0068461,-0.0071228,-0.00739519,-0.0076627,-0.00792474,-0.00818073,-0.00843007,-0.00867218,-0.00890647,-0.00913235,-0.00934924,-0.00955656,-0.00975372,-0.00994014,-0.0101153,-0.0102785,-0.0104293,-0.0105672,-0.0106916,-0.010802,-0.010898,-0.010979,-0.0110447,-0.0110947,-0.0111285,-0.0111459,-0.0111466,-0.0111304,-0.011097,-0.0110464,-0.0109784,-0.0108931,-0.0107904,-0.0106705,-0.0105335,-0.0103796,-0.0102092,-0.0100227,-0.00982033,-0.00960277,-0.00937055,-0.0091243,-0.00886475,-0.00859268,-0.00830892,-0.0080144,-0.00771006,-0.00739695,-0.00707613,-0.00674873,-0.00641591,-0.00607889,-0.0057389,-0.00539722,-0.00505511,-0.0047139,-0.00437488,-0.00403938,-0.00370868,-0.0033841,-0.00306689,-0.0027583,-0.00245954,-0.00217179,-0.00189614,-0.00163367,-0.00138538,-0.00115217,-0.000934907,-0.000734333,-0.000551109,-0.000385788,-0.000238809,-0.000110481,-9.74716e-07,8.96925e-05,0.000161677,0.00021533,0.000251223,0.000270183,0.000273333,0.000262147,0.000238509,0.000204794,0.000163949,0.000119574,7.59548e-05,3.79954e-05,1.0944e-05,0
0,1.20434e-05,3.25345e-05,5.09017e-05,5.93238e-05,5.19397e-05,2.44863e-05,-2.59728e-05,-0.000101294,-0.000202476,-0.000329849,-0.000483228,-0.000662041,-0.000865428,-0.00109232,-0.00134148,-0.00161161,-0.00190132,-0.00220918,-0.00253377,-0.00287367,-0.00322747,-0.00359379,-0.0039713,-0.00435868,-0.00475469,-0.00515809,-0.00556772,-0.00598243,-0.00640112,-0.00682275,-0.00724627,-0.00767069,-0.00809503,-0.00851836,-0.00893973,-0.00935824,-0.009773,-0.0101831,-0.0105877,-0.0109859,-0.0113768,-0.0117596,-0.0121334,-0.0124973,-0.0128505,-0.0131922,-0.0135214,-0.0138374,-0.0141392,-0.014426,-0.014697,-0.0149514,-0.0151884,-0.0154071,-0.0156068,-0.0157867,-0.0159462,-0.0160845,-0.016201,-0.0162951,-0.0163663,-0.016414,-0.0164377,-0.0164372,-0.016412,-0.0163619,-0.0162867,-0.0161864,-0.0160609,-0.0159103,-0.0157347,-0.0155344,-0.0153098,-0.0150612,-0.0147892,-0.0144945,-0.0141778,-0.0138399,-0.0134818,-0.0131045,-0.0127091,-0.0122969,-0.0118691,-0.0114271,-0.0109725,-0.0105068,-0.0100315,-0.00954834,-0.00905908,-0.00856547,-0.00806933,-0.00757249,-0.00707682,-0.00658418,-0.00609646,-0.00561551,-0.00514317,-0.00468127,-0.00423158,-0.00379582,-0.00337566,-0.00297268,-0.00258839,-0.00222421,-0.00188145,-0.00156129,-0.00126481,-0.000992927,-0.000746411,-0.000525867,-0.000331712,-0.000164163,-2.32152e-05,9.13857e-05,0.000180168,0.000243969,0.000283977,0.000301781,0.000299424,0.000279472,0.000245083,0.000200073,0.000148976,9.70529e-05,5.02708e-05,1.53119e-05,0
0,1.00198e-05,2.45271e-05,3.24559e-05,2.55858e-05,-2.27007e-06,-5.56799e-05,-0.000137866,-0.000250927,-0.000396041,-0.000573636,-0.000783551,-0.00102516,-0.00129748,-0.00159926,-0.00192906,-0.00228528,-0.00266626,-0.00307026,-0.00349552,-0.00394027,-0.00440276,-0.00488126,-0.00537408,-0.00587957,-0.00639611,-0.00692216,-0.00745619,-0.00799674,-0.0085424,-0.00909178,-0.00964355,-0.0101964,-0.0107491,-0.0113003,-0.0118489,-0.0123937,-0.0129335,-0.013467,-0.0139933,-0.0145111,-0.0150192,-0.0155167,-0.0160023,-0.0164748,-0.0169333,-0.0173766,-0.0178035,-0.018213,-0.0186039,-0.0189752,-0.0193259,-0.0196547,-0.0199608,-0.020243,-0.0205005,-0.0207322,-0.0209373,-0.0211149,-0.0212641,-0.0213842,-0.0214745,-0.0215344,-0.0215633,-0.0215608,-0.0215263,-0.0214597,-0.0213607,-0.0212293,-0.0210653,-0.0208689,-0.0206404,-0.0203801,-0.0200883,-0.0197658,-0.0194133,-0.0190314,-0.0186213,-0.018184,-0.0177206,-0.0172326,-0.0167214,-0.0161885,-0.0156356,-0.0150645,-0.0144771,-0.0138753,-0.0132613,-0.012637,-0.0120049,-0.011367,-0.0107257,-0.0100834,-0.00944243,-0.00880514,-0.00817395,-0.0075512,-0.00693926,-0.00634041,-0.00575693,-0.00519099,-0.0046447,-0.00412009,-0.00361906,-0.00314341,-0.00269478,-0.00227468,-0.00188446,-0.00152527,-0.00119807,-0.000903611,-0.000642402,-0.000414695,-0.000220461,-5.936e-05,6.92909e-05,0.000166555,0.000233918,0.000273339,0.0002873,0.00027887,0.00025176,0.000210376,0.000159867,0.000106159,5.60384e-05,1.73961e-05,0
0,6.24742e-06,1.09334e-05,3.447e-06,-2.42791e-05,-7.83767e-05,-0.000163416,-0.000282661,-0.000438267,-0.000631458,-0.000862687,-0.00113177,-0.00143803,-0.00178038,-0.00215741,-0.00256751,-0.00300886,-0.00347955,-0.00397758,-0.00450091,-0.00504748,-0.00561524,-0.00620215,-0.0068062,-0.00742543,-0.00805792,-0.0087018,-0.00935526,-0.0100165,-0.0106839,-0.0113556,-0.0120302,-0.0127059,-0.0133813,-0.0140548,-0.014725,-0.0153903,-0.0160494,-0.0167007,-0.017343,-0.0179747,-0.0185945,-0.019201,-0.0197929,-0.0203687,-0.0209271,-0.0214667,-0.0219862,-0.0224842,-0.0229595,-0.0234106,-0.0238363,-0.0242354,-0.0246065,-0.0249485,-0.0252601,-0.0255404,-0.025788,-0.0260021,-0.0261816,-0.0263257,-0.0264336,-0.0265044,-0.0265375,-0.0265325,-0.0264887,-0.0264059,-0.0262839,-0.0261225,-0.0259218,-0.0256818,-0.025403,-0.0250857,-0.0247304,-0.024338,-0.0239092,-0.0234451,-0.0229469,-0.0224158,-0.0218533,-0.021261,-0.0206407,-0.0199942,-0.0193236,-0.018631,-0.0179186,-0.0171888,-0.0164441,-0.0156871,-0.0149203,-0.0141464,-0.0133683,-0.0125887,-0.0118105,-0.0110364,-0.0102694,-0.00951229,-0.00876781,-0.00803875,-0.00732779,-0.00663754,-0.00597052,-0.00532913,-0.00471565,-0.0041322,-0.00358075,-0.0030631,-0.00258082,-0.00213529,-0.00172764,-0.00135875,-0.00102922,-0.000739334,-0.000489044,-0.000277947,-0.000105238,3.03231e-05,0.00013045,0.000197378,0.000233912,0.000243477,0.000230162,0.000198774,0.000154883,0.000104903,5.62387e-05,1.76488e-05,0
0,1.4077e-06,-6.39306e-06,-3.29626e-05,-8.57809e-05,-0.000170615,-0.000291797,-0.000452436,-0.000654587,-0.000899403,-0.00118727,-0.00151795,-0.00189065,-0.00230419,-0.00275703,-0.00324738,-0.00377325,-0.00433251,-0.00492295,-0.00554227,-0.00618816,-0.00685831,-0.00755041,-0.00826217,-0.00899136,-0.00973578,-0.0104933,-0.0112617,-0.0120391,-0.0128234,-0.0136127,-0.0144051,-0.0151987,-0.0159918,-0.0167824,-0.017569,-0.0183497,-0.0191228,-0.0198867,-0.0206398,-0.0213803,-0.0221066,-0.0228171,-0.0235102,-0.0241843,-0.0248378,-0.0254691,-0.0260765,-0.0266587,-0.0272139,-0.0277407,-0.0282375,-0.028703,-0.0291355,-0.0295339,-0.0298966,-0.0302224,-0.0305101,-0.0307584,-0.0309663,-0.0311326,-0.0312566,-0.0313374,-0.0313741,-0.0313663,-0.0313134,-0.0312149,-0.0310708,-0.0308808,-0.030645,-0.0303636,-0.030037,-0.0296656,-0.0292502,-0.0287916,-0.0282908,-0.027749,-0.0271675,-0.0265478,-0.0258918,-0.0252011,-0.0244779,-0.0237243,-0.0229426,-0.0221352,-0.0213049,-0.0204543,-0.0195862,-0.0187036,-0.0178095,-0.0169071,-0.0159994,-0.0150897,-0.0141813,-0.0132774,-0.0123812,-0.0114961,-0.0106252,-0.00977171,-0.0089387,-0.00812915,-0.00734595,-0.00659186,-0.0058695,-0.00518129,-0.00452949,-0.00391614,-0.00334307,-0.00281184,-0.00232375,-0.0018798,-0.00148065,-0.00112666,-0.000817772,-0.00055354,-0.000333076,-0.000155016,-1.74832e-05,8.19527e-05,0.000146318,0.000179277,0.000185172,0.000169077,0.00013685,9.52373e-05,5.20595e-05,1.65578e-05,0
0,-4.06589e-06,-2.6138e-05,-7.44115e-05,-0.000155478,-0.000274496,-0.000435365,-0.000640876,-0.000892853,-0.00119227,-0.00153936,-0.00193376,-0.00237457,-0.00286045,-0.00338973,-0.00396046,-0.00457049,-0.0052175,-0.00589907,-0.00661269,-0.00735585,-0.00812597,-0.00892052,-0.00973697,-0.0105728,-0.0114256,-0.012293,-0.0131725,-0.0140619,-0.014959,-0.0158615,-0.0167673,-0.0176743,-0.0185803,-0.0194835,-0.0203817,-0.021273,-0.0221555,-0.0230273,-0.0238864,-0.024731,-0.0255592,-0.0263692,-0.0271591,-0.027927,-0.0286712,-0.0293899,-0.0300812,-0.0307434,-0.0313747,-0.0319734,-0.0325379,-0.0330663,-0.0335573,-0.034009,-0.0344201,-0.0347891,-0.0351146,-0.0353952,-0.0356297,-0.0358171,-0.0359562,-0.0360462,-0.0360862,-0.0360755,-0.0360137,-0.0359003,-0.035735,-0.0355178,-0.0352487,-0.034928,-0.0345561,-0.0341336,-0.0336612,-0.0331399,-0.032571,-0.0319556,-0.0312954,-0.030592,-0.0298475,-0.0290638,-0.0282432,-0.0273883,-0.0265015,-0.0255856,-0.0246436,-0.0236785,-0.0226935,-0.0216919,-0.020677,-0.0196524,-0.0186215,-0.0175881,-0.0165556,-0.0155278,-0.0145083,-0.0135007,-0.0125087,-0.0115357,-0.0105852,-0.00966055,-0.008765,-0.00790159,-0.00707327,-0.00628274,-0.00553252,-0.00482492,-0.00416194,-0.00354536,-0.00297662,-0.00245684,-0.0019868,-0.00156688,-0.00119705,-0.000876864,-0.00060538,-0.00038116,-0.000202225,-6.6021e-05,3.06182e-05,9.15057e-05,0.000121142,0.000124762,0.000108399,7.89946e-05,4.45683e-05,1.45103e-05,0
0,-9.90104e-06,-4.73957e-05,-0.000119183,-0.000230783,-0.000386569,-0.000589852,-0.000842977,-0.00114742,-0.00150387,-0.00191237,-0.00237233,-0.00288269,-0.00344197,-0.00404833,-0.00469966,-0.00539365,-0.0061278,-0.0068995,-0.00770606,-0.00854475,-0.00941281,-0.0103075,-0.011226,-0.0121656,-0.0131237,-0.0140976,-0.0150848,-0.0160826,-0.0170886,-0.0181004,-0.0191156,-0.0201318,-0.0211468,-0.0221582,-0.0231638,-0.0241616,-0.0251492,-0.0261245,-0.0270855,-0.0280299,-0.0289558,-0.0298611,-0.0307436,-0.0316014,-0.0324324,-0.0332347,-0.0340061,-0.0347449,-0.0354489,-0.0361163,-0.0367453,-0.0373339,-0.0378804,-0.0383831,-0.0388403,-0.0392504,-0.0396118,-0.0399232,-0.0401832,-0.0403905,-0.040544,-0.0406428,-0.0406859,-0.0406726,-0.0406024,-0.0404748,-0.0402896,-0.0400466,-0.039746,-0.0393881,-0.0389733,-0.0385024,-0.0379761,-0.0373955,-0.036762,-0.0360771,-0.0353423,-0.0345597,-0.0337314,-0.0328595,-0.0319467,-0.0309956,-0.0300091,-0.0289903,-0.0279422,-0.0268683,-0.0257721,-0.0246572,-0.0235273,-0.0223861,-0.0212377,-0.0200859,-0.0189347,-0.0177881,-0.0166502,-0.0155249,-0.0144161,-0.0133278,-0.0122637,-0.0112275,-0.0102227,-0.00925275,-0.0083208,-0.00742986,-0.00658271,-0.00578185,-0.00502953,-0.00432768,-0.00367791,-0.00308147,-0.00253922,-0.00205162,-0.00161871,-0.00124002,-0.000914624,-0.000641045,-0.000417255,-0.000240639,-0.000107958,-1.53224e-05,4.18451e-05,6.88565e-05,7.18192e-05,5.77321e-05,3.46301e-05,1.17919e-05,0
0,-1.59254e-05,-6.95474e-05,-0.000166047,-0.000309776,-0.000504207,-0.000751949,-0.00105479,-0.00141377,-0.00182922,-0.00230087,-0.00282793,-0.00340909,-0.00404269,-0.00472672,-0.0054589,-0.00623672,-0.00705754,-0.00791857,-0.00881694,-0.00974972,-0.010714,-0.0117067,-0.012725,-0.0137659,-0.0148266,-0.0159042,-0.0169958,-0.0180988,-0.0192104,-0.020328,-0.021449,-0.0225708,-0.0236908,-0.0248067,-0.025916,-0.0270163,-0.0281051,-0.0291801,-0.0302391,-0.0312796,-0.0322994,-0.0332963,-0.0342678,-0.0352119,-0.0361263,-0.0370088,-0.0378571,-0.0386692,-0.039443,-0.0401763,-0.0408671,-0.0415134,-0.0421132,-0.0426647,-0.0431661,-0.0436156,-0.0440116,-0.0443525,-0.0446369,-0.0448635,-0.045031,-0.0451384,-0.0451847,-0.0451692,-0.0450913,-0.0449505,-0.0447465,-0.0444794,-0.0441492,-0.0437561,-0.0433009,-0.0427842,-0.0422069,-0.0415703,-0.0408758,-0.0401249,-0.0393195,-0.0384617,-0.0375538,-0.0365983,-0.0355979,-0.0345554,-0.0334741,-0.0323572,-0.0312081,-0.0300305,-0.0288281,-0.0276049,-0.0263649,-0.0251122,-0.023851,-0.0225855,-0.0213202,-0.0200593,-0.0188072,-0.0175681,-0.0163464,-0.0151462,-0.0139716,-0.0128267,-0.0117152,-0.0106408,-0.00960704,-0.00861712,-0.00767406,-0.0067806,-0.00593918,-0.00515192,-0.00442057,-0.00374653,-0.00313077,-0.00257384,-0.00207583,-0.00163633,-0.00125444,-0.000928693,-0.000657054,-0.0004369,-0.000264976,-0.000137378,-4.95189e-05,3.91491e-06,2.90119e-05,3.27134e-05,2.29176e-05,8.60989e-06,0
0,-2.20289e-05,-9.21714e-05,-0.000214127,-0.000391045,-0.000625429,-0.000919103,-0.00127322,-0.00168831,-0.00216427,-0.00270049,-0.00329586,-0.00394884,-0.00465753,-0.00541972,-0.00623295,-0.00709453,-0.00800164,-0.00895132,-0.00994052,-0.0109661,-0.0120251,-0.0131141,-0.0142302,-0.0153702,-0.0165311,-0.0177097,-0.0189031,-0.0201084,-0.0213226,-0.0225428,-0.0237664,-0.0249904,-0.0262123,-0.0274292,-0.0286387,-0.029838,-0.0310246,-0.0321959,-0.0333493,-0.0344825,-0.0355929,-0.036678,-0.0377354,-0.0387626,-0.0397572,-0.040717,-0.0416394,-0.0425222,-0.0433631,-0.0441598,-0.0449101,-0.045612,-0.0462632,-0.0468618,-0.0474059,-0.0478935,-0.0483229,-0.0486925,-0.0490007,-0.0492461,-0.0494274,-0.0495435,-0.0495934,-0.0495763,-0.0494915,-0.0493387,-0.0491174,-0.0488277,-0.0484697,-0.0480437,-0.0475504,-0.0469905,-0.0463651,-0.0456755,-0.0449232,-0.0441098,-0.0432375,-0.0423084,-0.0413249,-0.0402898,-0.039206,-0.0380765,-0.0369047,-0.0356941,-0.0344484,-0.0331715,-0.0318674,-0.0305404,-0.0291946,-0.0278346,-0.0264648,-0.0250899,-0.0237143,-0.0223427,-0.0209799,-0.0196304,-0.0182987,-0.0169895,-0.015707,-0.0144556,-0.0132393,-0.0120622,-0.0109279,-0.00984002,-0.00880171,-0.00781596,-0.00688541,-0.00601236,-0.00519874,-0.00444607,-0.00375547,-0.00312759,-0.00256261,-0.0020602,-0.0016195,-0.0012391,-0.000916999,-0.000650616,-0.000436727,-0.000271466,-0.000150293,-6.79618e-05,-1.84813e-05,4.9374e-06,9.94357e-06,5.11394e-06,0
0,-2.81403e-05,-0.00011498,-0.000262801,-0.000473555,-0.000748744,-0.00108936,-0.00149587,-0.0019682,-0.0025058,-0.00310763,-0.00377225,-0.00449783,-0.00528221,-0.00612294,-0.00701737,-0.00796262,-0.00895568,-0.00999341,-0.0110726,-0.01219,-0.0133423,-0.0145261,-0.0157383,-0.0169754,-0.0182343,-0.0195117,-0.0208044,-0.0221093,-0.0234234,-0.0247435,-0.0260667,-0.0273901,-0.0287107,-0.0300257,-0.0313322,-0.0326274,-0.0339087,-0.0351731,-0.0364181,-0.0376408,-0.0388388,-0.0400092,-0.0411495,-0.0422571,-0.0433293,-0.0443637,-0.0453577,-0.0463089,-0.0472147,-0.0480728,-0.0488808,-0.0496364,-0.0503375,-0.0509818,-0.0515674,-0.0520921,-0.0525542,-0.0529519,-0.0532836,-0.0535477,-0.0537429,-0.0538681,-0.0539221,-0.0539042,-0.0538136,-0.0536499,-0.0534128,-0.0531023,-0.0527184,-0.0522617,-0.0517327,-0.0511323,-0.0504615,-0.0497219,-0.0489148,-0.0480423,-0.0471064,-0.0461095,-0.0450542,-0.0439433,-0.0427798,-0.0415672,-0.0403088,-0.0390086,-0.0376703,-0.0362981,-0.0348962,-0.0334692,-0.0320215,-0.0305578,-0.029083,-0.0276019,-0.0261193,-0.0246402,-0.0231696,-0.0217123,-0.0202732,-0.0188571,-0.0174687,-0.0161125,-0.014793,-0.0135142,-0.0122803,-0.011095,-0.00996175,-0.00888371,-0.00786374,-0.00690433,-0.00600759,-0.0051752,-0.00440841,-0.00370801,-0.00307428,-0.00250699,-0.00200538,-0.00156811,-0.00119326,-0.000878323,-0.00062015,-0.00041496,-0.00025831,-0.000145079,-6.94366e-05,-2.48204e-05,-3.90511e-06,1.41258e-06,0
0,-3.42139e-05,-0.000137776,-0.000311629,-0.000556553,-0.000873042,-0.00126123,-0.00172084,-0.0022512,-0.00285121,-0.00351941,-0.00425395,-0.00505268,-0.00591316,-0.0068327,-0.00780839,-0.00883717,-0.00991583,-0.0110411,-0.0122095,-0.0134177,-0.0146621,-0.0159394,-0.017246,-0.0185786,-0.0199336,-0.0213077,-0.0226975,-0.0240998,-0.0255113,-0.0269288,-0.0283491,-0.0297691,-0.0311858,-0.032596,-0.0339968,-0.0353852,-0.0367583,-0.0381132,-0.0394468,-0.0407565,-0.0420394,-0.0432925,-0.0445133,-0.0456988,-0.0468463,-0.0479531,-0.0490166,-0.0500341,-0.051003,-0.0519208,-0.0527849,-0.053593,-0.0543427,-0.0550317,-0.0556579,-0.0562191,-0.0567134,-0.0571389,-0.057494,-0.057777,-0.0579865,-0.0581213,-0.0581803,-0.0581625,-0.0580674,-0.0578943,-0.057643,-0.0573134,-0.0569058,-0.0564204,-0.0558581,-0.0552197,-0.0545063,-0.0537194,-0.0528608,-0.0519322,-0.050936,-0.0498746,-0.0487508,-0.0475675,-0.046328,-0.0450358,-0.0436945,-0.0423081,-0.0408807,-0.0394166,-0.0379204,-0.0363967,-0.0348504,-0.0332862,-0.0317094,-0.030125,-0.0285381,-0.026954,-0.0253779,-0.023815,-0.0222704,-0.0207492,-0.0192563,-0.0177965,-0.0163746,-0.014995,-0.013662,-0.0123795,-0.0111512,-0.00998057,-0.00887065,-0.00782412,-0.00684327,-0.00592996,-0.0050856,-0.00431111,-0.00360692,-0.00297292,-0.00240847,-0.00191234,-0.00148272,-0.0011172,-0.000812764,-0.000565741,-0.000371835,-0.000226094,-0.0001229,-5.59667e-05,-1.83397e-05,-2.41589e-06,0
0,-4.02203e-05,-0.000160427,-0.000360302,-0.000639493,-0.000997497,-0.00143357,-0.0019467,-0.00253555,-0.00319846,-0.00393349,-0.00473837,-0.0056106,-0.00654742,-0.00754587,-0.0086028,-0.00971492,-0.0108788,-0.012091,-0.013348,-0.014646,-0.0159816,-0.017351,-0.0187507,-0.0201771,-0.0216265,-0.0230955,-0.0245805,-0.0260781,-0.0275849,-0.0290975,-0.0306126,-0.0321268,-0.0336371,-0.0351401,-0.0366328,-0.0381119,-0.0395744,-0.0410171,-0.0424371,-0.0438313,-0.0451968,-0.0465304,-0.0478294,-0.0490907,-0.0503115,-0.051489,-0.0526202,-0.0537024,-0.0547329,-0.055709,-0.056628,-0.0574875,-0.0582849,-0.0590179,-0.0596841,-0.0602815,-0.0608078,-0.0612612,-0.0616399,-0.0619422,-0.0621666,-0.0623118,-0.0623767,-0.0623603,-0.0622619,-0.062081,-0.0618172,-0.0614706,-0.0610412,-0.0605296,-0.0599364,-0.0592625,-0.0585091,-0.0576779,-0.0567704,-0.0557888,-0.0547354,-0.0536126,-0.0524235,-0.0511711,-0.0498588,-0.0484902,-0.0470691,-0.0455998,-0.0440864,-0.0425336,-0.0409461,-0.0393286,-0.0376863,-0.0360244,-0.0343481,-0.0326627,-0.0309738,-0.0292867,-0.0276069,-0.02594,-0.0242913,-0.0226662,-0.0210698,-0.0195073,-0.0179836,-0.0165034,-0.0150713,-0.0136915,-0.0123678,-0.0111041,-0.00990345,-0.00876885,-0.00770277,-0.00670725,-0.00578387,-0.00493374,-0.00415742,-0.00345498,-0.00282589,-0.00226908,-0.00178288,-0.00136501,-0.00101259,-0.000722133,-0.000489506,-0.000309964,-0.000178139,-8.8055e-05,-3.31474e-05,-6.31545e-06,0
0,-4.6141e-05,-0.000182843,-0.000408601,-0.000721978,-0.00112149,-0.00160554,-0.00217233,-0.00281986,-0.0035459,-0.00434798,-0.00522341,-0.00616929,-0.00718253,-0.00825986,-0.00939788,-0.0105931,-0.0118418,-0.0131404,-0.0144852,-0.0158723,-0.017298,-0.0187584,-0.0202499,-0.0217686,-0.0233109,-0.0248731,-0.0264515,-0.0280426,-0.0296427,-0.0312483,-0.0328561,-0.0344625,-0.0360642,-0.0376579,-0.0392402,-0.0408078,-0.0423574,-0.043886,-0.0453902,-0.0468668,-0.0483128,-0.049725,-0.0511004,-0.0524358,-0.0537282,-0.0549746,-0.0561721,-0.0573177,-0.0584086,-0.0594419,-0.060415,-0.0613251,-0.0621697,-0.0629462,-0.0636523,-0.0642857,-0.0648442,-0.0653257,-0.0657285,-0.0660507,-0.0662909,-0.0664476,-0.0665196,-0.0665059,-0.0664059,-0.0662188,-0.0659445,-0.0655828,-0.0651339,-0.0645982,-0.0639765,-0.0632697,-0.0624791,-0.0616062,-0.0606528,-0.059621,-0.0585133,-0.0573322,-0.0560808,-0.0547622,-0.0533801,-0.051938,-0.0504402,-0.0488908,-0.0472943,-0.0456554,-0.0439791,-0.0422704,-0.0405346,-0.038777,-0.0370033,-0.0352189,-0.0334296,-0.0316411,-0.0298591,-0.0280894,-0.0263375,-0.0246092,-0.0229099,-0.021245,-0.0196197,-0.0180389,-0.0165075,-0.0150299,-0.0136103,-0.0122526,-0.0109602,-0.00973644,-0.00858385,-0.00750472,-0.00650084,-0.00557347,-0.0047234,-0.00395082,-0.0032554,-0.00263623,-0.00209179,-0.00161998,-0.00121811,-0.000882844,-0.00061028,-0.0003959,-0.00023461,-0.000120757,-4.8175e-05,-1.02468e-05,0
0,-5.19647e-05,-0.000204963,-0.000456375,-0.000803725,-0.00124458,-0.00177648,-0.00239687,-0.00310307,-0.00389224,-0.00476139,-0.00570736,-0.00672685,-0.00781641,-0.00897247,-0.0101913,-0.0114693,-0.0128024,-0.0141868,-0.0156187,-0.017094,-0.0186088,-0.0201592,-0.0217413,-0.0233511,-0.0249849,-0.0266387,-0.0283089,-0.0299917,-0.0316834,-0.0333803,-0.0350788,-0.0367755,-0.0384667,-0.040149,-0.041819,-0.0434731,-0.0451081,-0.0467205,-0.048307,-0.0498643,-0.0513892,-0.0528783,-0.0543284,-0.0557363,-0.057099,-0.0584131,-0.0596757,-0.0608837,-0.0620341,-0.0631239,-0.0641504,-0.0651107,-0.0660021,-0.0668221,-0.0675681,-0.0682377,-0.0688287,-0.069339,-0.0697666,-0.0701097,-0.0703666,-0.070536,-0.0706165,-0.0706072,-0.0705072,-0.0703159,-0.070033,-0.0696584,-0.0691922,-0.0686349,-0.0679872,-0.0672501,-0.0664248,-0.0655129,-0.0645164,-0.0634372,-0.062278,-0.0610414,-0.0597306,-0.0583487,-0.0568995,-0.0553868,-0.0538148,-0.0521879,-0.0505108,-0.0487882,-0.0470254,-0.0452276,-0.0434003,-0.041549,-0.0396795,-0.0377976,-0.0359093,-0.0340205,-0.0321372,-0.0302654,-0.028411,-0.0265799,-0.0247779,-0.0230105,-0.0212834,-0.0196016,-0.0179703,-0.0163942,-0.0148777,-0.013425,-0.0120398,-0.0107255,-0.00948496,-0.00832073,-0.00723476,-0.00622855,-0.00530306,-0.0044587,-0.00369531,-0.00301218,-0.00240799,-0.00188081,-0.00142815,-0.00104691,-0.000733384,-0.000483323,-0.000291914,-0.000153838,-6.33154e-05,-1.41835e-05,0
0,-5.76848e-05,-0.000226749,-0.00050352,-0.000884529,-0.00136643,-0.00194591,-0.00261966,-0.00338432,-0.00423644,-0.00517248,-0.00618882,-0.00728172,-0.00844737,-0.00968187,-0.0109812,-0.0123414,-0.0137584,-0.0152281,-0.0167464,-0.0183091,-0.0199121,-0.0215514,-0.0232229,-0.0249226,-0.0266465,-0.0283907,-0.0301511,-0.0319241,-0.0337057,-0.0354922,-0.0372799,-0.0390651,-0.0408441,-0.0426133,-0.0443692,-0.0461081,-0.0478267,-0.0495213,-0.0511885,-0.052825,-0.0544271,-0.0559917,-0.0575153,-0.0589946,-0.0604264,-0.0618072,-0.063134,-0.0644036,-0.0656129,-0.0667588,-0.0678384,-0.0688487,-0.069787,-0.0706505,-0.0714367,-0.0721431,-0.0727672,-0.073307,-0.0737604,-0.0741254,-0.0744005,-0.074584,-0.0746746,-0.0746714,-0.0745733,-0.0743798,-0.0740904,-0.0737051,-0.073224,-0.0726476,-0.0719764,-0.0712115,-0.0703543,-0.0694062,-0.0683692,-0.0672454,-0.0660375,-0.0647482,-0.0633805,-0.061938,-0.0604244,-0.0588436,-0.0571999,-0.0554979,-0.0537423,-0.0519383,-0.050091,-0.0482059,-0.0462887,-0.0443451,-0.0423812,-0.040403,-0.0384167,-0.0364284,-0.0344443,-0.0324709,-0.0305141,-0.0285803,-0.0266753,-0.0248052,-0.0229756,-0.0211922,-0.0194601,-0.0177844,-0.0161699,-0.0146209,-0.0131415,-0.0117352,-0.0104052,-0.00915421,-0.0079845,-0.00689777,-0.00589519,-0.0049774,-0.00414445,-0.00339583,-0.00273043,-0.00214655,-0.00164192,-0.00121364,-0.000858274,-0.000571827,-0.000349781,-0.000187141,-7.84982e-05,-1.81087e-05,0
0,-6.3298e-05,-0.000248176,-0.000549963,-0.000964245,-0.00148679,-0.00211346,-0.0028402,-0.00366296,-0.00457768,-0.00558028,-0.00666665,-0.00783262,-0.00907399,-0.0103865,-0.0117659,-0.0132079,-0.0147081,-0.0162624,-0.0178663,-0.0195155,-0.0212059,-0.0229331,-0.024693,-0.0264814,-0.0282942,-0.0301273,-0.0319767,-0.0338384,-0.0357085,-0.0375831,-0.0394584,-0.0413305,-0.0431958,-0.0450503,-0.0468906,-0.0487129,-0.0505135,-0.0522889,-0.0540355,-0.0557497,-0.057428,-0.0590669,-0.0606629,-0.0622126,-0.0637125,-0.0651594,-0.0665498,-0.0678805,-0.0691483,-0.0703501,-0.0714826,-0.0725431,-0.0735284,-0.0744359,-0.0752628,-0.0760066,-0.0766648,-0.0772352,-0.0777155,-0.0781039,-0.0783985,-0.0785978,-0.0787003,-0.078705,-0.0786109,-0.0784173,-0.0781238,-0.0777302,-0.0772367,-0.0766436,-0.0759515,-0.0751616,-0.074275,-0.0732935,-0.0722187,-0.0710531,-0.0697992,-0.0684597,-0.067038,-0.0655374,-0.0639618,-0.0623153,-0.0606022,-0.0588272,-0.0569952,-0.0551115,-0.0531814,-0.0512106,-0.049205,-0.0471704,-0.0451131,-0.0430394,-0.0409557,-0.0388683,-0.0367839,-0.0347088,-0.0326496,-0.0306126,-0.0286043,-0.0266307,-0.0246979,-0.0228117,-0.0209778,-0.0192013,-0.0174873,-0.0158406,-0.0142653,-0.0127653,-0.0113441,-0.0100047,-0.00874946,-0.00758045,-0.00649907,-0.00550617,-0.00460205,-0.00378643,-0.00305844,-0.0024166,-0.00185886,-0.00138259,-0.000984596,-0.000661155,-0.000408038,-0.000220568,-9.36819e-05,-2.20134e-05,0
0,-6.88028e-05,-0.000269227,-0.000595656,-0.00104277,-0.00160547,-0.00227885,-0.00305808,-0.00393846,-0.00491531,-0.00598401,-0.00713993,-0.00837848,-0.00969506,-0.0110851,-0.0125439,-0.0140671,-0.0156499,-0.017288,-0.0189767,-0.0207117,-0.0224885,-0.0243026,-0.0261498,-0.0280258,-0.0299263,-0.0318472,-0.0337842,-0.0357334,-0.0376906,-0.039652,-0.0416134,-0.0435711,-0.0455212,-0.0474597,-0.049383,-0.0512873,-0.0531687,-0.0550236,-0.0568484,-0.0586393,-0.0603926,-0.0621049,-0.0637725,-0.0653918,-0.0669593,-0.0684716,-0.0699253,-0.0713169,-0.0726431,-0.0739007,-0.0750864,-0.0761973,-0.0772302,-0.0781823,-0.0790507,-0.0798329,-0.0805262,-0.0811284,-0.0816371,-0.0820503,-0.0823662,-0.0825831,-0.0826995,-0.0827142,-0.0826263,-0.082435,-0.0821397,-0.0817403,-0.0812369,-0.0806298,-0.0799196,-0.0791073,-0.0781941,-0.0771818,-0.0760721,-0.0748673,-0.0735701,-0.0721831,-0.0707098,-0.0691536,-0.0675184,-0.0658084,-0.064028,-0.0621821,-0.0602756,-0.0583139,-0.0563026,-0.0542474,-0.0521545,-0.0500299,-0.04788,-0.0457114,-0.0435306,-0.0413443,-0.0391594,-0.0369825,-0.0348204,-0.0326797,-0.0305672,-0.0284892,-0.026452,-0.0244619,-0.0225246,-0.0206458,-0.0188308,-0.0170845,-0.0154116,-0.0138161,-0.0123019,-0.0108721,-0.0095295,-0.00827638,-0.00711439,-0.00604467,-0.00506776,-0.00418363,-0.00339165,-0.0026906,-0.00207868,-0.00155351,-0.00111216,-0.000751167,-0.000466597,-0.000254073,-0.000108848,-2.58945e-05,0
0,-7.4199e-05,-0.000289893,-0.000640566,-0.00112003,-0.00172236,-0.00244186,-0.00327301,-0.00421041,-0.0052488,-0.006383,-0.00760788,-0.00891841,-0.0103096,-0.0117765,-0.0133141,-0.0149177,-0.0165824,-0.0183035,-0.0200763,-0.0218961,-0.0237583,-0.0256584,-0.0275919,-0.0295544,-0.0315415,-0.0335489,-0.0355724,-0.0376078,-0.039651,-0.0416977,-0.0437441,-0.0457861,-0.0478197,-0.049841,-0.0518461,-0.0538312,-0.0557923,-0.0577257,-0.0596276,-0.0614942,-0.0633218,-0.0651067,-0.0668452,-0.0685336,-0.0701683,-0.0717458,-0.0732625,-0.0747149,-0.0760996,-0.0774133,-0.0786526,-0.0798144,-0.0808956,-0.0818931,-0.0828041,-0.0836258,-0.0843556,-0.084991,-0.0855296,-0.0859695,-0.0863085,-0.086545,-0.0866775,-0.0867045,-0.0866251,-0.0864385,-0.086144,-0.0857415,-0.0852308,-0.0846124,-0.0838868,-0.083055,-0.0821181,-0.0810777,-0.0799359,-0.0786947,-0.0773567,-0.0759249,-0.0744025,-0.0727931,-0.0711006,-0.0693293,-0.0674837,-0.0655686,-0.0635893,-0.0615512,-0.05946,-0.0573217,-0.0551423,-0.0529284,-0.0506865,-0.0484233,-0.0461456,-0.0438604,-0.0415747,-0.0392955,-0.0370298,-0.0347846,-0.0325668,-0.0303831,-0.0282403,-0.0261446,-0.0241024,-0.0221195,-0.0202016,-0.0183539,-0.0165813,-0.0148883,-0.013279,-0.0117568,-0.0103249,-0.00898571,-0.00774125,-0.00659292,-0.00554155,-0.00458736,-0.00372999,-0.00296848,-0.0023013,-0.00172633,-0.0012409,-0.000841825,-0.000525439,-0.000287647,-0.000123997,-2.97535e-05,0
0,-7.94869e-05,-0.00031017,-0.000684672,-0.00119597,-0.00183734,-0.00260234,-0.00348473,-0.00447849,-0.00557773,-0.00677672,-0.00806987,-0.00945166,-0.0109167,-0.0124597,-0.0140754,-0.0157587,-0.0175044,-0.0193078,-0.0211637,-0.0230674,-0.0250141,-0.0269991,-0.0290179,-0.0310658,-0.0331384,-0.0352313,-0.0373401,-0.0394605,-0.0415884,-0.0437194,-0.0458495,-0.0479746,-0.0500907,-0.0521936,-0.0542794,-0.0563443,-0.0583841,-0.0603951,-0.0623733,-0.0643149,-0.066216,-0.068073,-0.0698819,-0.071639,-0.0733407,-0.0749832,-0.076563,-0.0780764,-0.0795199,-0.0808901,-0.0821836,-0.0833972,-0.0845275,-0.0855715,-0.0865262,-0.0873888,-0.0881565,-0.0888268,-0.0893972,-0.0898656,-0.0902299,-0.0904882,-0.090639,-0.0906808,-0.0906125,-0.0904331,-0.0901421,-0.0897392,-0.0892241,-0.0885973,-0.0878591,-0.0870106,-0.0860528,-0.0849873,-0.0838161,-0.0825412,-0.0811652,-0.0796912,-0.0781222,-0.076462,-0.0747145,-0.072884,-0.0709751,-0.0689927,-0.0669422,-0.0648291,-0.0626592,-0.0604386,-0.0581738,-0.0558711,-0.0535375,-0.0511799,-0.0488052,-0.0464208,-0.0440338,-0.0416515,-0.0392813,-0.0369304,-0.0346061,-0.0323153,-0.0300651,-0.0278622,-0.0257132,-0.0236242,-0.0216013,-0.0196501,-0.0177757,-0.0159831,-0.0142764,-0.0126597,-0.0111363,-0.00970898,-0.00838007,-0.00715126,-0.00602366,-0.0049978,-0.00407359,-0.00325035,-0.00252681,-0.00190112,-0.00137088,-0.000933173,-0.000584596,-0.000321317,-0.000139144,-3.35959e-05,0