-0,-0,-0,-0,-0,-0,-0,-0,-0,-0,-0,-0,-0,-0,-0,-0,-0,-0,-0,-0,-0,-0,-0,-0,-0,-0,-0,-0,-0,-0,-0,-0,-0,-0,-0,-0,-0,-0,-0,-0,-0,-0,-0,-0,-0,-0,-0,-0,-0,-0,-0,-0,-0,-0,-0,-0,-0,-0,-0,-0,-0,-0,-0,-0,-0,-0,-0,-0,-0,-0,-0,-0,-0,-0,-0,-0,-0,-0,-0,-0,-0,-0,-0,-0,-0,-0,-0,-0,-0,-0,-0,-0,-0,-0,-0,-0,-0,-0,-0,-0,-0,-0,-0,-0,-0,-0,-0,-0,-0,-0,-0,-0,-0,-0,-0,-0,-0,-0,-0,-0,-0,-0,-0,-0,-0,-0,-0,-0
-0,-6.88237e-06,-1.12943e-05,-1.19503e-05,-9.85984e-06,-6.04268e-06,-1.21508e-06,4.15546e-06,9.76596e-06,1.54179e-05,2.09796e-05,2.63635e-05,3.15116e-05,3.63864e-05,4.09651e-05,4.52355e-05,4.91926e-05,5.28373e-05,5.61742e-05,5.92108e-05,6.19565e-05,6.44221e-05,6.66191e-05,6.85591e-05,7.02539e-05,7.1715e-05,7.29534e-05,7.39794e-05,7.48028e-05,7.54322e-05,7.58757e-05,7.61404e-05,7.62324e-05,7.6157e-05,7.59186e-05,7.55208e-05,7.49666e-05,7.42578e-05,7.33962e-05,7.23825e-05,7.12171e-05,6.99002e-05,6.84312e-05,6.68098e-05,6.50352e-05,6.31066e-05,6.10233e-05,5.87847e-05,5.63904e-05,5.38404e-05,5.11349e-05,4.82746e-05,4.52609e-05,4.20956e-05,3.87812e-05,3.5321e-05,3.17192e-05,2.79804e-05,2.41107e-05,2.01165e-05,1.60056e-05,1.17865e-05,7.46881e-06,3.06305e-06,-1.41925e-06,-5.96561e-06,-1.05626e-05,-1.5196e-05,-1.98504e-05,-2.451e-05,-2.9158e-05,-3.37769e-05,-3.83487e-05,-4.28548e-05,-4.72763e-05,-5.15938e-05,-5.5788e-05,-5.98391e-05,-6.37278e-05,-6.74346e-05,-7.09406e-05,-7.4227e-05,-7.72759e-05,-8.00701e-05,-8.2593e-05,-8.48292e-05,-8.67644e-05,-8.83855e-05,-8.96807e-05,-9.06399e-05,-9.12544e-05,-9.15171e-05,-9.14227e-05,-9.0968e-05,-9.01513e-05,-8.8973e-05,-8.74354e-05,-8.55429e-05,-8.33017e-05,-8.07201e-05,-7.78085e-05,-7.45791e-05,-7.10461e-05,-6.72257e-05,-6.31361e-05,-5.87975e-05,-5.42319e-05,-4.94638e-05,-4.45194e-05,-3.94278e-05,-3.42205e-05,-2.89322e-05,-2.36014e-05,-1.8271e-05,-1.29898e-05,-7.81394e-06,-2.80922e-06,1.94547e-06,6.35341e-06,1.02931e-05,1.36082e-05,1.60925e-05,1.74701e-05,1.73736e-05,1.53457e-05,1.09739e-05,4.57923e-06,-0
-0,-2.19812e-05,-3.24635e-05,-3.23224e-05,-2.41783e-05,-1.05593e-05,6.56138e-06,2.57516e-05,4.59977e-05,6.65876e-05,8.70214e-05,0.00010695,0.00012613,0.000144398,0.000161646,0.000177806,0.000192845,0.000206749,0.000219524,0.000231187,0.000241765,0.000251289,0.000259797,0.000267327,0.000273919,0.000279612,0.000284444,0.000288453,0.000291671,0.000294131,0.000295862,0.000296889,0.000297235,0.000296921,0.000295961,0.000294371,0.000292161,0.00028934,0.000285914,0.000281888,0.000277262,0.00027204,0.00026622,0.000259801,0.000252782,0.000245162,0.00023694,0.000228113,0.000218683,0.000208649,0.000198016,0.000186787,0.000174969,0.000162569,0.0001496,0.000136075,0.000122012,0.000107429,9.23504e-05,7.68032e-05,6.08174e-05,4.44267e-05,2.76688e-05,1.05847e-05,-6.78074e-06,-2.43793e-05,-4.21592e-05,-6.00652e-05,-7.8039e-05,-9.60194e-05,-0.000113942,-0.000131741,-0.000149347,-0.00016669,-0.000183697,-0.000200296,-0.000216412,-0.000231972,-0.000246903,-0.00026113,-0.000274582,-0.00028719,-0.000298885,-0.000309602,-0.00031928,-0.000327861,-0.000335291,-0.00034152,-0.000346506,-0.00035021,-0.0003526,-0.000353649,-0.000353339,-0.000351657,-0.000348597,-0.000344162,-0.000338361,-0.000331212,-0.000322737,-0.000312971,-0.000301953,-0.00028973,-0.000276357,-0.000261898,-0.000246422,-0.000230009,-0.000212745,-0.000194724,-0.00017605,-0.000156837,-0.000137209,-0.000117302,-9.72673e-05,-7.72736e-05,-5.75114e-05,-3.81983e-05,-1.95873e-05,-1.97622e-06,1.42772e-05,2.87372e-05,4.0865e-05,4.99891e-05,5.52762e-05,5.57237e-05,5.02436e-05,3.80252e-05,1.96526e-05,-0
-0,-3.94174e-05,-5.47232e-05,-5.06505e-05,-3.20423e-05,-3.14989e-06,3.26189e-05,7.2662e-05,0.000115042,0.000158334,0.0002015,0.000243788,0.000284659,0.000323736,0.00036076,0.000395562,0.000428044,0.000458158,0.000485896,0.000511277,0.000534345,0.000555157,0.00057378,0.000590288,0.000604759,0.00061727,0.000627899,0.00063672,0.000643802,0.000649211,0.000653006,0.000655242,0.000655966,0.00065522,0.000653039,0.000649454,0.000644487,0.000638158,0.000630482,0.000621469,0.000611125,0.000599453,0.000586456,0.000572133,0.000556483,0.000539505,0.000521198,0.000501562,0.000480599,0.000458314,0.000434716,0.000409816,0.00038363,0.000356179,0.00032749,0.000297595,0.000266534,0.000234352,0.000201101,0.000166842,0.000131642,9.55767e-05,5.87288e-05,2.11891e-05,-1.69439e-05,-5.55642e-05,-9.45586e-05,-0.000133806,-0.000173181,-0.000212548,-0.000251769,-0.0002907,-0.000329191,-0.00036709,-0.000404241,-0.000440486,-0.000475667,-0.000509623,-0.000542195,-0.000573228,-0.000602565,-0.000630058,-0.00065556,-0.000678932,-0.000700041,-0.000718764,-0.000734985,-0.0007486,-0.000759515,-0.000767648,-0.000772931,-0.000775308,-0.000774739,-0.000771198,-0.000764674,-0.000755173,-0.000742715,-0.000727339,-0.000709098,-0.000688064,-0.000664323,-0.00063798,-0.000609157,-0.000577991,-0.000544637,-0.000509267,-0.000472073,-0.000433262,-0.000393064,-0.000351728,-0.000309528,-0.000266766,-0.000223774,-0.000180923,-0.000138627,-9.73597e-05,-5.76621e-05,-2.0165e-05,1.43893e-05,4.51175e-05,7.09613e-05,9.06524e-05,0.00010269,0.000105368,9.6924e-05,7.59847e-05,4.25746e-05,-0
-0,-5.45157e-05,-7.13217e-05,-5.91118e-05,-2.52163e-05,2.42783e-05,8.44738e-05,0.000151532,0.000222501,0.000295143,0.000367773,0.000439142,0.00050833,0.000574673,0.000637703,0.000697105,0.000752679,0.000804318,0.000851979,0.000895677,0.00093546,0.00097141,0.00100363,0.00103222,0.00105731,0.00107902,0.00109747,0.00111279,0.00112508,0.00113445,0.00114101,0.00114483,0.001146,0.00114459,0.00114066,0.00113426,0.00112543,0.0011142,0.0011006,0.00108465,0.00106636,0.00104575,0.0010228,0.000997538,0.000969952,0.000940045,0.00090782,0.00087328,0.000836433,0.000797291,0.000755871,0.000712197,0.0006663,0.000618221,0.00056801,0.000515725,0.000461437,0.000405228,0.000347192,0.000287435,0.000226077,0.000163249,9.90971e-05,3.37794e-05,-3.25328e-05,-9.96553e-05,-0.000167392,-0.000235534,-0.000303861,-0.000372145,-0.000440145,-0.000507613,-0.000574294,-0.000639924,-0.000704238,-0.000766965,-0.000827832,-0.000886567,-0.000942898,-0.000996558,-0.00104728,-0.00109482,-0.00113891,-0.00117933,-0.00121584,-0.00124824,-0.00127633,-0.00129994,-0.0013189,-0.00133307,-0.00134235,-0.00134663,-0.00134585,-0.00133997,-0.00132896,-0.00131284,-0.00129165,-0.00126544,-0.00123433,-0.00119842,-0.00115788,-0.00111287,-0.00106362,-0.00101036,-0.000953366,-0.000892928,-0.000829382,-0.00076309,-0.00069445,-0.000623897,-0.000551908,-0.000479005,-0.000405764,-0.000332823,-0.000260894,-0.000190781,-0.000123397,-5.97889e-05,-1.17001e-06,5.10461e-05,9.52069e-05,0.000129388,0.000151383,0.000158744,0.000148949,0.000119766,6.99234e-05,-0
-0,-6.39445e-05,-7.71594e-05,-5.17092e-05,2.68367e-06,7.81158e-05,0.000168215,0.000267909,0.000373217,0.000481043,0.00058901,0.00069531,0.000798587,0.000897837,0.000992337,0.00108159,0.00116525,0.00124314,0.00131515,0.00138129,0.00144159,0.00149615,0.0015451,0.00158859,0.00162679,0.00165986,0.00168798,0.00171131,0.00173001,0.00174425,0.00175416,0.00175987,0.00176149,0.00175914,0.00175289,0.00174283,0.00172901,0.0017115,0.00169031,0.0016655,0.00163708,0.00160506,0.00156947,0.00153029,0.00148755,0.00144124,0.00139137,0.00133796,0.00128102,0.00122057,0.00115665,0.0010893,0.00101856,0.000944507,0.00086722,0.000786793,0.000703339,0.000616985,0.000527879,0.000436186,0.00034209,0.000245796,0.000147527,4.75263e-05,-5.39444e-05,-0.000156604,-0.000260152,-0.000364272,-0.00046863,-0.000572878,-0.000676651,-0.000779574,-0.000881261,-0.000981314,-0.00107933,-0.00117491,-0.00126763,-0.00135708,-0.00144287,-0.00152458,-0.00160181,-0.00167419,-0.00174134,-0.00180291,-0.00185855,-0.00190795,-0.00195081,-0.00198688,-0.00201591,-0.0020377,-0.00205207,-0.00205888,-0.00205803,-0.00204947,-0.00203316,-0.00200912,-0.00197741,-0.00193813,-0.00189143,-0.00183749,-0.00177655,-0.00170888,-0.0016348,-0.00155467,-0.00146892,-0.00137799,-0.00128239,-0.00118268,-0.00107945,-0.000973385,-0.000865197,-0.000755683,-0.000645715,-0.000536258,-0.000428379,-0.000323275,-0.000222289,-0.000126949,-3.89926e-05,3.95857e-05,0.000106501,0.000159147,0.000194584,0.000209585,0.000200752,0.000164748,9.8613e-05,-0
-0,-6.54491e-05,-6.85213e-05,-2.38992e-05,5.66074e-05,0.000163416,0.000288758,0.000426382,0.000571299,0.000719563,0.00086809,0.00101449,0.00115693,0.00129405,0.00142483,0.00154855,0.00166472,0.00177304,0.00187334,0.00196558,0.00204979,0.00212607,0.00219458,0.0022555,0.00230903,0.0023554,0.00239482,0.00242751,0.00245369,0.00247357,0.00248732,0.00249512,0.00249714,0.0024935,0.00248434,0.00246974,0.00244981,0.0024246,0.00239419,0.00235861,0.00231789,0.00227207,0.00222117,0.00216519,0.00210415,0.00203806,0.00196694,0.00189082,0.00180972,0.00172367,0.00163274,0.00153698,0.00143648,0.00133133,0.00122165,0.00110759,0.000989301,0.000866975,0.000740821,0.000611076,0.000478005,0.000341895,0.000203065,6.18579e-05,-8.13563e-05,-0.000226182,-0.000372197,-0.000518957,-0.000665994,-0.000812819,-0.000958925,-0.00110379,-0.00124686,-0.00138761,-0.00152545,-0.00165983,-0.00179018,-0.00191591,-0.00203648,-0.00215131,-0.00225986,-0.00236159,-0.00245599,-0.00254257,-0.00262085,-0.0026904,-0.0027508,-0.00280171,-0.00284277,-0.00287372,-0.00289431,-0.00290434,-0.00290369,-0.00289225,-0.00287001,-0.00283699,-0.00279326,-0.00273898,-0.00267435,-0.00259963,-0.00251514,-0.00242128,-0.0023185,-0.0022073,-0.00208826,-0.00196203,-0.00182932,-0.0016909,-0.00154763,-0.00140043,-0.00125033,-0.00109843,-0.000945942,-0.000794209,-0.000644701,-0.000499051,-0.000359084,-0.000226843,-0.000104633,4.94688e-06,9.89571e-05,0.000174091,0.000226662,0.000252615,0.000247593,0.00020702,0.000126162,-0
-0,-5.75514e-05,-4.2789e-05,2.76787e-05,0.000140336,0.000284132,0.000450036,0.000630699,0.000820183,0.00101373,0.00120755,0.00139869,0.00158483,0.00176421,0.00193552,0.0020978,0.00225039,0.00239284,0.00252491,0.0026465,0.00275763,0.00285839,0.00294896,0.00302955,0.00310039,0.00316176,0.00321393,0.00325716,0.00329172,0.00331788,0.00333585,0.00334588,0.00334814,0.00334282,0.00333008,0.00331006,0.00328285,0.00324856,0.00320727,0.00315904,0.00310391,0.00304193,0.00297312,0.0028975,0.00281511,0.00272597,0.00263011,0.00252755,0.00241835,0.00230257,0.00218029,0.00205159,0.00191659,0.00177543,0.00162828,0.00147533,0.0013168,0.00115295,0.000984059,0.00081045,0.000632477,0.000450531,0.000265035,7.64491e-05,-0.000114734,-0.000307986,-0.000502748,-0.000698429,-0.000894408,-0.00109004,-0.00128465,-0.00147755,-0.00166802,-0.00185534,-0.00203877,-0.00221756,-0.00239095,-0.0025582,-0.00271856,-0.0028713,-0.0030157,-0.00315104,-0.00327667,-0.00339192,-0.00349619,-0.0035889,-0.00366951,-0.00373755,-0.00379259,-0.00383425,-0.00386222,-0.00387625,-0.00387615,-0.00386182,-0.00383322,-0.00379038,-0.00373341,-0.00366251,-0.00357794,-0.00348006,-0.00336929,-0.00324616,-0.00311125,-0.00296525,-0.00280893,-0.00264313,-0.00246881,-0.00228698,-0.00209878,-0.00190543,-0.00170829,-0.00150882,-0.0013086,-0.00110938,-0.000913076,-0.000721799,-0.000537882,-0.000363917,-0.000202794,-5.77381e-05,6.76471e-05,0.000169346,0.000242907,0.000283425,0.000285542,0.000243427,0.000150672,-0
-0,-3.93111e-05,1.82437e-06,0.000105441,0.000256692,0.000443302,0.000655139,0.000883871,0.00112269,0.00136608,0.00160959,0.00184969,0.00208362,0.00230921,0.00252484,0.00272931,0.00292176,0.00310162,0.00326854,0.00342236,0.00356307,0.00369075,0.00380558,0.0039078,0.00399769,0.00407555,0.00414171,0.00419648,0.00424019,0.00427313,0.0042956,0.00430786,0.00431016,0.00430271,0.0042857,0.0042593,0.00422366,0.00417889,0.00412509,0.00406234,0.0039907,0.00391024,0.00382099,0.00372299,0.00361629,0.00350091,0.0033769,0.00324432,0.00310323,0.00295373,0.00279591,0.00262991,0.00245588,0.00227401,0.00208452,0.00188766,0.00168373,0.00147305,0.001256,0.00103299,0.000804488,0.000570985,0.000333031,9.12134e-05,-0.000153836,-0.000401442,-0.000650892,-0.000901434,-0.00115228,-0.0014026,-0.00165155,-0.00189824,-0.00214178,-0.00238124,-0.00261569,-0.00284417,-0.00306575,-0.00327946,-0.00348438,-0.00367956,-0.00386411,-0.00403713,-0.00419777,-0.00434522,-0.00447869,-0.00459747,-0.00470089,-0.00478834,-0.00485927,-0.00491322,-0.0049498,-0.00496868,-0.00496964,-0.00495254,-0.00491733,-0.00486406,-0.00479288,-0.00470401,-0.00459782,-0.00447475,-0.00433533,-0.00418024,-0.00401023,-0.00382616,-0.003629,-0.00341985,-0.0031999,-0.00297045,-0.00273295,-0.00248895,-0.00224015,-0.00198839,-0.00173569,-0.00148422,-0.00123637,-0.000994755,-0.000762239,-0.000541983,-0.000337476,-0.00015258,8.43344e-06,0.000140835,0.000239404,0.000298382,0.000311424,0.000271504,0.00017073,-0
-0,-1.01558e-05,6.64931e-05,0.000211066,0.000407721,0.000643201,0.000906444,0.00118826,0.00148108,0.00177868,0.00207601,0.00236901,0.00265447,0.00292985,0.00319322,0.00344312,0.00367852,0.00389868,0.00410317,0.00429176,0.00446438,0.00462111,0.00476213,0.0048877,0.00499813,0.00509377,0.00517498,0.00524213,0.00529558,0.0053357,0.00536282,0.00537726,0.00537929,0.00536919,0.00534717,0.00531344,0.00526817,0.00521151,0.00514357,0.00506447,0.00497428,0.00487307,0.00476091,0.00463785,0.00450393,0.00435923,0.00420381,0.00403773,0.0038611,0.00367403,0.00347666,0.00326917,0.00305176,0.00282466,0.00258817,0.0023426,0.00208833,0.00182577,0.00155539,0.00127772,0.000993321,0.000702822,0.000406903,0.000106294,-0.000198221,-0.000505808,-0.000815583,-0.00112662,-0.00143794,-0.00174853,-0.00205735,-0.0023633,-0.00266529,-0.00296217,-0.0032528,-0.00353601,-0.00381065,-0.00407555,-0.00432955,-0.00457152,-0.00480034,-0.00501493,-0.00521425,-0.00539729,-0.0055631,-0.00571081,-0.00583959,-0.0059487,-0.00603747,-0.00610534,-0.00615181,-0.0061765,-0.00617914,-0.00615956,-0.00611769,-0.0060536,-0.00596746,-0.00585957,-0.00573036,-0.00558038,-0.00541029,-0.00522091,-0.00501317,-0.00478815,-0.00454702,-0.00429115,-0.00402198,-0.00374114,-0.0034504,-0.00315165,-0.00284699,-0.00253866,-0.00222911,-0.00192098,-0.00161716,-0.00132078,-0.00103525,-0.000764323,-0.000512092,-0.000283054,-8.21556e-05,8.51675e-05,0.000212933,0.000294549,0.000322731,0.000289367,0.000185303,-0
-0,3.02363e-05,0.000151946,0.000345669,0.000594852,0.000885475,0.00120572,0.00154569,0.00189712,0.00225318,0.0026083,0.00295791,0.00329838,0.00362684,0.00394105,0.00423932,0.00452041,0.00478347,0.00502793,0.00525351,0.00546009,0.00564773,0.00581662,0.00596703,0.00609928,0.00621378,0.00631092,0.00639111,0.00645479,0.00650235,0.00653417,0.00655062,0.00655203,0.00653869,0.00651087,0.00646882,0.00641272,0.00634276,0.00625909,0.00616181,0.00605105,0.00592689,0.0057894,0.00563866,0.00547475,0.00529774,0.00510772,0.0049048,0.0046891,0.00446077,0.00421999,0.00396699,0.00370202,0.00342538,0.00313742,0.00283855,0.00252923,0.00220996,0.00188132,0.00154396,0.00119855,0.000845878,0.00048675,0.000122057,-0.000247253,-0.000620173,-0.000995638,-0.00137253,-0.00174967,-0.00212584,-0.00249979,-0.00287021,-0.00323577,-0.00359511,-0.00394686,-0.00428961,-0.00462199,-0.00494259,-0.00525004,-0.00554298,-0.00582006,-0.00608,-0.00632155,-0.0065435,-0.00674473,-0.00692418,-0.00708087,-0.00721391,-0.0073225,-0.00740596,-0.00746371,-0.0074953,-0.00750038,-0.00747876,-0.00743036,-0.00735526,-0.00725367,-0.00712594,-0.00697258,-0.00679426,-0.00659178,-0.00636611,-0.00611837,-0.00584985,-0.00556198,-0.00525637,-0.00493477,-0.00459914,-0.00425156,-0.00389434,-0.00352995,-0.00316109,-0.00279063,-0.00242172,-0.00205776,-0.0017024,-0.00135963,-0.00103378,-0.000729555,-0.000452101,-0.000207024,-4.5798e-07,0.000160873,0.000269584,0.000317519,0.000295608,0.000193648,-0
-0,8.20156e-05,0.000258591,0.000509939,0.000819023,0.00117126,0.00155424,0.00195747,0.00237212,0.00279086,0.0032076,0.00361736,0.00401614,0.00440074,0.00476864,0.00511794,0.00544721,0.00575547,0.00604205,0.00630659,0.00654892,0.0067691,0.0069673,0.00714381,0.00729898,0.00743323,0.00754701,0.00764079,0.00771502,0.00777016,0.00780664,0.00782486,0.0078252,0.00780801,0.00777357,0.00772218,0.00765404,0.00756938,0.00746836,0.00735113,0.00721782,0.00706854,0.00690338,0.00672244,0.00652581,0.00631361,0.00608594,0.00584294,0.00558478,0.00531163,0.00502374,0.00472136,0.00440483,0.00407451,0.00373082,0.00337426,0.00300538,0.00262479,0.00223319,0.00183133,0.00142005,0.00100025,0.000572909,0.000139084,-0.000300106,-0.000743467,-0.00118974,-0.0016376,-0.00208567,-0.0025325,-0.00297662,-0.00341649,-0.00385054,-0.00427717,-0.00469477,-0.0051017,-0.00549632,-0.005877,-0.00624212,-0.00659007,-0.0069193,-0.00722828,-0.00751554,-0.00777969,-0.00801938,-0.00823338,-0.00842054,-0.00857981,-0.00871027,-0.00881109,-0.00888161,-0.00892129,-0.00892972,-0.00890667,-0.00885206,-0.00876596,-0.00864862,-0.00850047,-0.0083221,-0.00811428,-0.00787796,-0.00761429,-0.00732458,-0.00701034,-0.00667325,-0.00631521,-0.00593828,-0.00554474,-0.00513707,-0.00471794,-0.00429025,-0.00385714,-0.00342197,-0.00298837,-0.00256027,-0.00214188,-0.00173775,-0.0013528,-0.000992364,-0.000662204,-0.000368589,-0.000118337,8.11209e-05,0.00022165,0.000294307,0.000289191,0.000195246,-0
-0,0.000145216,0.000386607,0.000704245,0.00108079,0.00150128,0.00195284,0.00242453,0.00290705,0.00339262,0.00387475,0.00434811,0.00480834,0.00525195,0.00567621,0.00607899,0.00645871,0.00681425,0.00714486,0.00745009,0.00772976,0.00798388,0.00821263,0.0084163,0.00859529,0.00875004,0.00888103,0.00898877,0.00907378,0.00913654,0.00917753,0.00919721,0.009196,0.00917426,0.00913236,0.00907057,0.00898919,0.00888843,0.00876849,0.00862955,0.00847175,0.00829524,0.00810013,0.00788653,0.00765458,0.00740439,0.00713613,0.00684995,0.00654605,0.00622468,0.00588611,0.00553067,0.00515874,0.00477077,0.00436727,0.00394882,0.00351607,0.00306975,0.00261068,0.00213975,0.00165793,0.00116628,0.000665951,0.000158165,-0.000355766,-0.000874454,-0.00139643,-0.00192017,-0.00244406,-0.00296642,-0.00348555,-0.00399965,-0.00450693,-0.00500552,-0.00549356,-0.00596914,-0.00643039,-0.0068754,-0.0073023,-0.00770925,-0.00809443,-0.00845608,-0.00879251,-0.0091021,-0.00938331,-0.00963469,-0.00985493,-0.0100428,-0.0101972,-0.0103173,-0.0104022,-0.0104513,-0.0104641,-0.0104404,-0.0103801,-0.0102832,-0.01015,-0.00998111,-0.00977709,-0.00953886,-0.00926752,-0.0089644,-0.008631,-0.00826908,-0.00788058,-0.00746768,-0.00703279,-0.00657851,-0.00610771,-0.00562347,-0.00512913,-0.00462828,-0.00412477,-0.00362274,-0.00312666,-0.00264128,-0.00217174,-0.00172356,-0.00130267,-0.000915465,-0.000568864,-0.000270339,-2.80002e-05,0.000149325,0.000251987,0.000269375,0.000189743,-0
-0,0.000219792,0.000536007,0.000928717,0.00138044,0.00187593,0.00240204,0.00294744,0.0035025,0.00405907,0.00461033,0.00515064,0.00567535,0.00618075,0.00666387,0.00712241,0.00755466,0.00795937,0.00833571,0.00868318,0.00900156,0.00929084,0.0095512,0.00978296,0.00998651,0.0101623,0.010311,0.0104329,0.0105288,0.0105992,0.0106444,0.0106652,0.0106619,0.0106349,0.0105846,0.0105114,0.0104155,0.0102973,0.0101569,0.00999451,0.00981035,0.00960455,0.00937727,0.00912865,0.00885884,0.00856799,0.00825629,0.00792394,0.00757118,0.00719831,0.00680565,0.0063936,0.00596261,0.0055132,0.00504598,0.00456163,0.00406089,0.00354463,0.00301379,0.0024694,0.00191258,0.00134456,0.000766665,0.000180297,-0.000413037,-0.00101174,-0.00161414,-0.00221846,-0.00282287,-0.00342546,-0.00402427,-0.00461725,-0.00520233,-0.00577741,-0.00634033,-0.00688895,-0.00742109,-0.00793459,-0.00842733,-0.00889718,-0.00934208,-0.00976003,-0.0101491,-0.0105074,-0.0108332,-0.0111248,-0.0113808,-0.0115997,-0.0117803,-0.0119216,-0.0120226,-0.0120826,-0.012101,-0.0120776,-0.0120122,-0.011905,-0.0117562,-0.0115663,-0.0113362,-0.0110669,-0.0107596,-0.0104158,-0.0100372,-0.00962591,-0.00918404,-0.0087141,-0.00821882,-0.00770119,-0.00716445,-0.0066121,-0.00604792,-0.00547599,-0.00490065,-0.00432656,-0.00375872,-0.00320247,-0.0026635,-0.00214794,-0.00166232,-0.00121367,-0.000809518,-0.000457984,-0.000167814,5.15229e-05,0.000189747,0.00023564,0.000176907,-0
-0,0.000305643,0.000706688,0.00118331,0.00171799,0.00229536,0.00290205,0.0035265,0.00415881,0.00479056,0.00541466,0.00602522,0.00661739,0.00718722,0.00773158,0.00824804,0.00873474,0.00919036,0.00961399,0.0100051,0.0103634,0.0106889,0.0109818,0.0112423,0.0114711,0.0116684,0.011835,0.0119714,0.0120782,0.0121559,0.0122052,0.0122266,0.0122206,0.0121876,0.012128,0.0120423,0.0119308,0.0117937,0.0116313,0.0114438,0.0112314,0.0109943,0.0107328,0.0104468,0.0101367,0.00980262,0.00944476,0.00906337,0.00865876,0.00823125,0.00778124,0.00730919,0.00681563,0.00630117,0.00576649,0.00521239,0.00463973,0.0040495,0.00344277,0.00282072,0.00218464,0.00153592,0.000876061,0.000206671,-0.000470543,-0.00115377,-0.00184111,-0.00253057,-0.00322006,-0.00390742,-0.00459043,-0.00526678,-0.00593414,-0.00659011,-0.00723228,-0.00785821,-0.00846545,-0.00905156,-0.00961414,-0.0101508,-0.0106592,-0.011137,-0.0115822,-0.0119925,-0.012366,-0.0127008,-0.0129953,-0.0132478,-0.013457,-0.0136215,-0.0137404,-0.013813,-0.0138384,-0.0138164,-0.0137469,-0.0136298,-0.0134657,-0.013255,-0.0129986,-0.0126977,-0.0123537,-0.0119682,-0.0115433,-0.011081,-0.010584,-0.0100551,-0.00949718,-0.00891374,-0.00830839,-0.00768508,-0.00704803,-0.00640179,-0.00575121,-0.0051015,-0.00445819,-0.00382718,-0.00321476,-0.00262763,-0.00207295,-0.00155834,-0.00109195,-0.000682508,-0.000339367,-7.25836e-05,0.000106995,0.000187635,0.000156595,-0
-0,0.000402635,0.000898466,0.00146785,0.00209333,0.0027595,0.00345288,0.00416176,0.00487607,0.00558719,0.00628784,0.00697194,0.00763447,0.00827132,0.00887922,0.00945563,0.0099986,0.0105067,0.0109791,0.011415,0.0118143,0.012177,0.0125031,0.0127932,0.0130476,0.0132668,0.0134515,0.0136024,0.01372,0.0138049,0.0138579,0.0138794,0.01387,0.0138302,0.0137605,0.0136613,0.0135328,0.0133755,0.0131896,0.0129754,0.012733,0.0124628,0.0121648,0.0118394,0.0114866,0.0111068,0.0107002,0.010267,0.00980768,0.00932254,0.00881207,0.00827678,0.0077173,0.00713431,0.00652861,0.00590109,0.00525275,0.00458469,0.00389813,0.0031944,0.00247497,0.00174139,0.000995356,0.000238676,-0.000526732,-0.00129884,-0.00207551,-0.00285449,-0.00363347,-0.00441002,-0.00518164,-0.00594576,-0.00669976,-0.00744096,-0.00816665,-0.00887412,-0.00956062,-0.0102234,-0.0108598,-0.0114671,-0.0120428,-0.0125842,-0.0130889,-0.0135546,-0.0139791,-0.0143602,-0.014696,-0.0149847,-0.0152248,-0.0154149,-0.0155539,-0.0156407,-0.0156747,-0.0156554,-0.0155827,-0.0154567,-0.0152777,-0.0150465,-0.0147638,-0.0144311,-0.0140498,-0.0136219,-0.0131494,-0.012635,-0.0120813,-0.0114914,-0.0108688,-0.0102173,-0.00954084,-0.00884381,-0.00813093,-0.00740723,-0.00667809,-0.00594922,-0.00522672,-0.00451706,-0.00382711,-0.00316418,-0.002536,-0.00195081,-0.00141734,-0.000944928,-0.000543485,-0.00022362,3.31202e-06,0.00012513,0.000128732,-0
-0,0.000510607,0.0011111,0.00178207,0.0025062,0.00326812,0.00405434,0.00485309,0.00565417,0.00644887,0.00722978,0.00799069,0.00872644,0.00943284,0.0101065,0.0107448,0.0113458,0.0119079,0.0124303,0.0129122,0.0133535,0.0137541,0.0141142,0.0144343,0.0147147,0.014956,0.015159,0.0153243,0.0154526,0.0155445,0.0156007,0.0156218,0.0156084,0.0155611,0.0154803,0.0153664,0.0152199,0.015041,0.0148302,0.0145876,0.0143136,0.0140083,0.013672,0.0133049,0.0129073,0.0124794,0.0120215,0.0115339,0.0110171,0.0104715,0.00989759,0.00929598,0.00866737,0.00801256,0.00733244,0.006628,0.00590037,0.0051508,0.00438063,0.00359138,0.00278467,0.00196223,0.00112597,0.000277886,-0.00057988,-0.00144507,-0.0023153,-0.0031881,-0.00406086,-0.00493089,-0.00579543,-0.00665162,-0.00749655,-0.00832725,-0.00914071,-0.00993391,-0.0107038,-0.0114474,-0.0121616,-0.0128435,-0.0134902,-0.0140989,-0.0146668,-0.0151914,-0.01567,-0.0161005,-0.0164806,-0.0168084,-0.0170821,-0.0173002,-0.0174612,-0.0175643,-0.0176086,-0.0175935,-0.017519,-0.017385,-0.0171919,-0.0169405,-0.0166317,-0.0162671,-0.0158482,-0.0153772,-0.0148564,-0.0142885,-0.0136766,-0.0130242,-0.0123351,-0.0116132,-0.0108632,-0.0100898,-0.00929823,-0.00849396,-0.00768291,-0.00687136,-0.00606593,-0.00527369,-0.00450209,-0.003759,-0.00305278,-0.00239224,-0.00178672,-0.00124609,-0.000780837,-0.000402068,-0.000121603,4.79808e-05,9.328e-05,-0
-0,0.000629384,0.0013443,0.00212563,0.00295624,0.00382088,0.00470611,0.00560017,0.00649284,0.00737535,0.00824022,0.00908119,0.00989302,0.0106715,0.0114131,0.0121152,0.0127758,0.0133934,0.013967,0.014496,0.0149801,0.0154193,0.015814,0.0161644,0.0164711,0.0167348,0.0169561,0.0171358,0.0172745,0.0173731,0.0174321,0.0174523,0.0174342,0.0173785,0.0172856,0.0171561,0.0169903,0.0167887,0.0165515,0.016279,0.0159716,0.0156295,0.015253,0.0148423,0.0143977,0.0139194,0.0134079,0.0128634,0.0122866,0.0116777,0.0110375,0.0103667,0.0096659,0.00893612,0.00817832,0.00739362,0.00658328,0.00574866,0.00489129,0.00401282,0.00311505,0.00219992,0.00126952,0.000326061,-0.000628089,-0.00159044,-0.00255836,-0.00352912,-0.00449985,-0.00546759,-0.00642928,-0.00738178,-0.00832188,-0.0092463,-0.0101517,-0.0110349,-0.0118923,-0.0127207,-0.0135168,-0.0142773,-0.0149989,-0.0156787,-0.0163134,-0.0169004,-0.0174367,-0.0179198,-0.0183473,-0.0187171,-0.0190271,-0.0192757,-0.0194613,-0.0195828,-0.0196392,-0.0196301,-0.0195551,-0.0194142,-0.019208,-0.0189371,-0.0186026,-0.0182062,-0.0177495,-0.0172349,-0.016665,-0.0160427,-0.0153714,-0.0146549,-0.0138973,-0.0131031,-0.0122771,-0.0114248,-0.0105516,-0.00966367,-0.0087674,-0.00786959,-0.00697746,-0.00609863,-0.00524113,-0.00441345,-0.00362451,-0.00288372,-0.00220099,-0.00158674,-0.00105198,-0.000608307,-0.00026797,-4.39017e-05,5.02333e-05,-0
-0,0.000758782,0.00159776,0.00249814,0.00344302,0.00441733,0.00540775,0.00640258,0.00739165,0.0083662,0.00931876,0.010243,0.0111338,0.0119867,0.0127984,0.0135662,0.014288,0.0149624,0.0155884,0.0161654,0.0166931,0.0171717,0.0176014,0.0179825,0.0183158,0.0186019,0.0188416,0.0190355,0.0191844,0.0192892,0.0193506,0.0193692,0.0193458,0.0192809,0.0191751,0.0190289,0.0188428,0.0186171,0.0183522,0.0180484,0.0177061,0.0173255,0.0169069,0.0164506,0.0159569,0.0154262,0.0148588,0.0142551,0.0136157,0.012941,0.0122319,0.011489,0.0107132,0.00990542,0.00906686,0.00819871,0.00730237,0.00637934,0.0054313,0.00446008,0.00346764,0.00245612,0.00142781,0.00038514,-0.000669295,-0.00173276,-0.00280239,-0.00387518,-0.00494798,-0.00601757,-0.00708058,-0.00813358,-0.00917305,-0.0101954,-0.011197,-0.0121742,-0.0131234,-0.0140408,-0.0149228,-0.0157659,-0.0165664,-0.0173211,-0.0180265,-0.0186795,-0.019277,-0.0198162,-0.0202944,-0.0207093,-0.0210586,-0.0213404,-0.0215531,-0.0216953,-0.021766,-0.0217647,-0.0216908,-0.0215445,-0.0213262,-0.0210366,-0.020677,-0.020249,-0.0197546,-0.0191962,-0.0185765,-0.0178989,-0.0171671,-0.016385,-0.0155572,-0.0146885,-0.0137844,-0.0128505,-0.0118929,-0.0109182,-0.00993331,-0.00894564,-0.00796295,-0.00699342,-0.0060457,-0.00512884,-0.00425236,-0.00342625,-0.00266098,-0.00196753,-0.00135739,-0.000842655,-0.000435959,-0.000150574,-4.01845e-07,-0
-0,0.000898611,0.00187115,0.00289917,0.00396606,0.00505696,0.00615872,0.00725978,0.00835007,0.0094209,0.0104648,0.0114757,0.0124481,0.0133781,0.014262,0.0150972,0.0158818,0.0166143,0.0172938,0.0179197,0.0184918,0.0190102,0.0194753,0.0198876,0.0202476,0.0205562,0.0208141,0.021022,0.021181,0.0212916,0.0213549,0.0213714,0.0213419,0.0212671,0.0211475,0.0209836,0.020776,0.020525,0.0202311,0.0198946,0.0195159,0.0190952,0.0186328,0.0181292,0.0175845,0.0169993,0.0163738,0.0157087,0.0150044,0.0142615,0.0134809,0.0126633,0.0118097,0.0109211,0.00999886,0.00904424,0.00805878,0.00704412,0.00600212,0.00493474,0.00384416,0.00273269,0.00160283,0.000457238,-0.000701269,-0.00186971,-0.00304496,-0.00422375,-0.00540266,-0.00657817,-0.00774662,-0.00890427,-0.0100473,-0.0111718,-0.0122738,-0.0133493,-0.0143944,-0.0154049,-0.016377,-0.0173068,-0.0181903,-0.0190239,-0.0198038,-0.0205267,-0.0211891,-0.021788,-0.0223203,-0.0227836,-0.0231753,-0.0234933,-0.0237358,-0.0239013,-0.0239886,-0.0239971,-0.0239262,-0.0237761,-0.023547,-0.0232398,-0.0228558,-0.0223967,-0.0218647,-0.0212622,-0.0205924,-0.0198588,-0.0190652,-0.0182162,-0.0173165,-0.0163715,-0.0153869,-0.0143688,-0.013324,-0.0122594,-0.0111825,-0.0101013,-0.00902409,-0.00795967,-0.00691724,-0.00590648,-0.00493748,-0.00402082,-0.00316751,-0.00238908,-0.00169754,-0.0011054,-0.00062572,-0.00027208,-5.86148e-05,-0
-0,0.00104868,0.00216413,0.00332828,0.00452481,0.00573917,0.0069584,0.00817113,0.00936745,0.0105388,0.0116778,0.0127784,0.0138355,0.0148448,0.015803,0.0167075,0.0175564,0.0183483,0.0190823,0.0197579,0.0203751,0.020934,0.0214349,0.0218785,0.0222654,0.0225965,0.0228725,0.0230944,0.0232629,0.0233791,0.0234437,0.0234576,0.0234214,0.0233358,0.0232015,0.0230191,0.0227889,0.0225116,0.0221875,0.0218169,0.0214003,0.020938,0.0204302,0.0198775,0.0192801,0.0186384,0.0179529,0.0172242,0.0164528,0.0156394,0.0147849,0.0138901,0.0129561,0.0119841,0.0109754,0.0099314,0.00885384,0.0077445,0.00660536,0.00543859,0.00424652,0.00303167,0.00179675,0.000544639,-0.000721619,-0.00199879,-0.0032835,-0.00457219,-0.00586117,-0.00714663,-0.0084246,-0.00969104,-0.0109418,-0.0121726,-0.0133792,-0.0145573,-0.0157025,-0.0168105,-0.017877,-0.0188976,-0.0198683,-0.0207849,-0.0216434,-0.0224401,-0.0231713,-0.0238336,-0.0244237,-0.0249389,-0.0253763,-0.0257336,-0.0260089,-0.0262004,-0.0263069,-0.0263275,-0.0262617,-0.0261094,-0.0258711,-0.0255475,-0.0251401,-0.0246505,-0.0240811,-0.0234347,-0.0227144,-0.021924,-0.0210679,-0.0201506,-0.0191774,-0.0181541,-0.0170867,-0.015982,-0.014847,-0.0136893,-0.0125169,-0.0113384,-0.0101627,-0.00899899,-0.00785726,-0.00674771,-0.00568105,-0.00466841,-0.00372138,-0.00285203,-0.00207286,-0.00139683,-0.000837401,-0.000408468,-0.000124399,-0