-0,-0.000922498,-0.00349624,-0.00666001,-0.00956698,-0.0116688,-0.0126367,-0.0122861,-0.0105257,-0.00732495,-0.0026934,0.00333271,0.0106993,0.0193406,0.0291836,0.0401509,0.0521632,0.0651407,0.0790045,0.0936772,0.109084,0.125151,0.14181,0.158994,0.176638,0.194683,0.213069,0.231743,0.250651,0.269743,0.28897,0.308288,0.32765,0.347014,0.366337,0.38558,0.404702,0.423663,0.442425,0.460949,0.479195,0.497127,0.514705,0.53189,0.548644,0.564928,0.580702,0.595928,0.610565,0.624574,0.637916,0.65055,0.662439,0.673543,0.683824,0.693244,0.701767,0.709357,0.715981,0.721605,0.7262,0.729736,0.732188,0.73353,0.733744,0.732809,0.730713,0.727444,0.722994,0.71736,0.710542,0.702547,0.693384,0.683066,0.671614,0.65905,0.645404,0.63071,0.615006,0.598336,0.580749,0.562298,0.543042,0.523042,0.502366,0.481085,0.459273,0.437008,0.414373,0.39145,0.368328,0.345093,0.321837,0.298651,0.275625,0.252854,0.230427,0.208436,0.186971,0.166119,0.145965,0.126592,0.108079,0.0905011,0.0739286,0.0584279,0.0440595,0.0308781,0.0189319,0.00826224,-0.00109739,-0.00912176,-0.0157949,-0.0211112,-0.0250766,-0.0277101,-0.0290461,-0.0291372,-0.0280578,-0.0259096,-0.0228289,-0.0189967,-0.0146539,-0.0101219,-0.00582813,-0.00232625,-0.000253391,-0
-0.000922498,-0.00165281,-0.00238199,-0.00320707,-0.00382367,-0.0039011,-0.00317952,-0.00147945,0.00131128,0.00525334,0.0103693,0.016654,0.024082,0.0326139,0.0421998,0.0527834,0.0643036,0.0766969,0.0898986,0.103844,0.118467,0.133707,0.149501,0.165788,0.182512,0.199616,0.217046,0.234751,0.25268,0.270786,0.289023,0.307345,0.32571,0.344075,0.362399,0.380643,0.398766,0.41673,0.434497,0.452029,0.469288,0.486237,0.502838,0.519055,0.53485,0.550185,0.565024,0.579329,0.593063,0.606189,0.61867,0.630469,0.641552,0.651881,0.661422,0.670142,0.678006,0.684985,0.691046,0.696162,0.700305,0.703451,0.705577,0.706663,0.70669,0.705645,0.703515,0.700293,0.695973,0.690554,0.684038,0.676432,0.667746,0.657995,0.647198,0.635379,0.622564,0.608786,0.594082,0.578492,0.562062,0.544842,0.526883,0.508245,0.488988,0.469178,0.448881,0.428169,0.407117,0.385799,0.364296,0.342685,0.32105,0.299471,0.278032,0.256815,0.235904,0.215379,0.19532,0.175807,0.156915,0.138718,0.121286,0.104687,0.0889829,0.0742319,0.0604871,0.0477958,0.0361994,0.0257322,0.0164213,0.00828558,0.0013349,-0.00443094,-0.0090234,-0.0124667,-0.0147997,-0.0160782,-0.0163779,-0.0157981,-0.0144661,-0.0125422,-0.0102247,-0.00775108,-0.00538706,-0.00338004,-0.00181711,-0.000253391
-0.00349944,-0.00238456,-0.00117232,3.65865e-05,0.00137945,0.00306635,0.0052978,0.00823517,0.0119957,0.0166567,0.0222625,0.0288312,0.0363606,0.0448329,0.0542186,0.0644795,0.0755712,0.0874451,0.100049,0.113331,0.127235,0.141709,0.156696,0.172145,0.188004,0.204221,0.220746,0.237531,0.25453,0.271697,0.288987,0.306358,0.323767,0.341174,0.358539,0.375822,0.392985,0.409991,0.426802,0.44338,0.45969,0.475695,0.491359,0.506646,0.521521,0.535947,0.54989,0.563314,0.576184,0.588466,0.600126,0.611129,0.621444,0.631037,0.639876,0.647932,0.655174,0.661575,0.667108,0.671746,0.675468,0.678251,0.680076,0.680927,0.680788,0.679648,0.677498,0.674331,0.670146,0.664943,0.658726,0.651501,0.643281,0.634081,0.623918,0.612816,0.600801,0.587904,0.574159,0.559604,0.54428,0.528234,0.511514,0.494174,0.476268,0.457856,0.439,0.419763,0.400212,0.380417,0.360446,0.340373,0.32027,0.300211,0.28027,0.26052,0.241036,0.221891,0.203155,0.184899,0.16719,0.150094,0.133674,0.117987,0.10309,0.0890327,0.0758616,0.0636171,0.0523342,0.0420412,0.0327592,0.0245017,0.0172734,0.0110695,0.00587435,0.00166047,-0.00161316,-0.00400272,-0.00558156,-0.00644212,-0.00669776,-0.00648338,-0.00595323,-0.00527177,-0.0045897,-0.00399018,-0.00338183,-0.00232155
-0.00667808,-0.00321413,4.02289e-05,0.00314584,0.00623811,0.00948896,0.0130691,0.0171269,0.0217801,0.027116,0.0331938,0.0400491,0.0476976,0.0561396,0.0653626,0.0753446,0.0860557,0.0974606,0.10952,0.12219,0.135428,0.149187,0.16342,0.17808,0.193122,0.208499,0.224164,0.240075,0.256186,0.272455,0.288839,0.305298,0.32179,0.338277,0.35472,0.37108,0.387321,0.403404,0.419295,0.434956,0.450353,0.465451,0.480214,0.494608,0.508599,0.522153,0.535238,0.547818,0.559863,0.571339,0.582216,0.592462,0.602046,0.61094,0.619115,0.626543,0.633198,0.639056,0.644092,0.648285,0.651615,0.654063,0.655613,0.656251,0.655967,0.654749,0.652593,0.649494,0.645452,0.640469,0.634549,0.627702,0.619939,0.611275,0.601729,0.591323,0.580081,0.568033,0.55521,0.541648,0.527386,0.512464,0.496929,0.480828,0.464211,0.447132,0.429646,0.411811,0.393687,0.375336,0.35682,0.338203,0.319551,0.300929,0.282403,0.264038,0.245901,0.228055,0.210564,0.19349,0.176892,0.160828,0.145353,0.130518,0.116372,0.102958,0.0903158,0.0784802,0.0674798,0.0573376,0.0480695,0.0396844,0.0321828,0.025556,0.0197858,0.0148426,0.010685,0.00725826,0.00449335,0.00230634,0.000598461,-0.000741999,-0.00183439,-0.00279414,-0.00371071,-0.00460987,-0.00539898,-0.00581292
-0.0096175,-0.00383478,0.00140113,0.00626833,0.0109384,0.0155829,0.0203639,0.0254246,0.030884,0.036836,0.0433506,0.0504764,0.0582436,0.0666671,0.0757488,0.0854801,0.0958443,0.106818,0.118372,0.130473,0.143086,0.156174,0.169695,0.183609,0.197876,0.212454,0.227301,0.242376,0.257638,0.273046,0.288562,0.304144,0.319756,0.335358,0.350913,0.366384,0.381736,0.396931,0.411936,0.426714,0.441232,0.455457,0.469353,0.482889,0.496033,0.508751,0.521012,0.532786,0.544041,0.554748,0.564879,0.574403,0.583294,0.591526,0.599072,0.605908,0.612011,0.617359,0.621932,0.62571,0.628678,0.630819,0.63212,0.63257,0.632161,0.630886,0.628739,0.625721,0.621831,0.617073,0.611453,0.604982,0.59767,0.589533,0.58059,0.57086,0.560368,0.549141,0.537208,0.524603,0.51136,0.497518,0.483118,0.468203,0.452817,0.43701,0.420831,0.404332,0.387565,0.370586,0.353451,0.336215,0.318938,0.301677,0.284489,0.267434,0.250568,0.233948,0.21763,0.201667,0.186113,0.171018,0.156429,0.14239,0.128944,0.116128,0.103976,0.0925157,0.0817715,0.0717612,0.0624963,0.0539816,0.0462141,0.0391824,0.0328664,0.0272355,0.022249,0.0178545,0.0139879,0.0105737,0.00752563,0.00474994,0.00215061,-0.000360843,-0.00285026,-0.00534065,-0.00779219,-0.0101
-0.0117681,-0.00390955,0.00313035,0.00958812,0.0156649,0.0215417,0.0273812,0.0333265,0.0394988,0.0459973,0.0529003,0.0602664,0.0681372,0.0765394,0.0854867,0.0949824,0.105021,0.115588,0.126666,0.13823,0.150253,0.162703,0.175548,0.188752,0.20228,0.216094,0.230157,0.244431,0.258878,0.27346,0.288139,0.302879,0.317641,0.33239,0.34709,0.361704,0.376198,0.390537,0.404687,0.418615,0.432286,0.44567,0.458733,0.471444,0.483773,0.495689,0.507162,0.518163,0.528665,0.538638,0.548057,0.556896,0.565129,0.572733,0.579686,0.585964,0.591549,0.596421,0.600562,0.603957,0.606592,0.608455,0.609533,0.60982,0.609309,0.607994,0.605875,0.602951,0.599224,0.594699,0.589384,0.583288,0.576424,0.568807,0.560454,0.551386,0.541624,0.531194,0.520123,0.508442,0.496182,0.483379,0.470069,0.45629,0.442085,0.427494,0.412563,0.397338,0.381864,0.366192,0.350369,0.334446,0.318474,0.302503,0.286583,0.270766,0.255102,0.23964,0.224429,0.209514,0.194943,0.180758,0.167,0.153708,0.140917,0.128658,0.116961,0.105847,0.0953372,0.0854438,0.0761747,0.0675314,0.059508,0.0520911,0.0452591,0.0389816,0.0332186,0.0279207,0.0230284,0.0184734,0.0141792,0.0100644,0.00604659,0.0020492,-0.0019902,-0.00611174,-0.0103305,-0.0146501
-0.0127912,-0.00316686,0.00544132,0.0132893,0.0205927,0.0275398,0.0342958,0.0410053,0.047792,0.0547595,0.0619924,0.0695571,0.0775042,0.08587,0.0946781,0.103941,0.113664,0.123841,0.134462,0.145512,0.156969,0.16881,0.181006,0.193529,0.206348,0.219428,0.232737,0.24624,0.259902,0.273687,0.28756,0.301486,0.315429,0.329354,0.343227,0.357014,0.37068,0.384192,0.397517,0.410624,0.423479,0.436052,0.448313,0.460231,0.471778,0.482923,0.493641,0.503903,0.513684,0.522957,0.531699,0.539886,0.547496,0.554507,0.5609,0.566654,0.571754,0.576182,0.579924,0.582967,0.585299,0.58691,0.587793,0.587941,0.58735,0.586017,0.583942,0.581126,0.577575,0.573292,0.568287,0.56257,0.556153,0.54905,0.541279,0.532859,0.52381,0.514156,0.503923,0.493137,0.481827,0.470026,0.457765,0.44508,0.432007,0.418582,0.404846,0.390838,0.3766,0.362174,0.347602,0.332928,0.318196,0.30345,0.288734,0.274091,0.259565,0.245199,0.231033,0.217109,0.203464,0.190137,0.177162,0.16457,0.152393,0.140656,0.129383,0.118592,0.108297,0.0985092,0.0892317,0.0804632,0.0721957,0.0644142,0.0570963,0.0502117,0.0437219,0.03758,0.0317308,0.0261115,0.0206528,0.0152811,0.00992117,0.00450001,-0.00104959,-0.00678746,-0.0127701,-0.0190656
-0.0124832,-0.00140944,0.00851211,0.0175355,0.0258786,0.0337316,0.0412608,0.0486118,0.0559102,0.063263,0.0707593,0.0784719,0.0864584,0.0947627,0.103416,0.112441,0.121848,0.131641,0.141817,0.152366,0.163276,0.174526,0.186097,0.197962,0.210094,0.222466,0.235047,0.247805,0.260707,0.273722,0.286815,0.299953,0.313103,0.326231,0.339305,0.35229,0.365155,0.377868,0.390396,0.40271,0.414777,0.426569,0.438057,0.449212,0.460006,0.470412,0.480406,0.48996,0.499052,0.507658,0.515756,0.523325,0.530344,0.536795,0.542661,0.547924,0.552571,0.556587,0.559961,0.562681,0.564739,0.566127,0.56684,0.566874,0.566225,0.564895,0.562882,0.560192,0.556829,0.552799,0.548111,0.542775,0.536805,0.530214,0.523019,0.515236,0.506887,0.497991,0.488573,0.478657,0.468269,0.457437,0.44619,0.434558,0.422574,0.41027,0.39768,0.384839,0.371783,0.358547,0.34517,0.331687,0.318137,0.304558,0.290986,0.277458,0.264013,0.250685,0.237511,0.224523,0.211755,0.199238,0.187001,0.17507,0.163471,0.152225,0.141349,0.130859,0.120765,0.111074,0.101786,0.0928982,0.0843997,0.0762747,0.0685005,0.061047,0.0538772,0.0469465,0.0402032,0.0335889,0.0270393,0.0204857,0.0138562,0.00707801,7.74948e-05,-0.00722068,-0.0148995,-0.0230615
-0.0107257,0.00149864,0.0124808,0.0224627,0.0316569,0.0402506,0.0484088,0.0562768,0.063981,0.0716306,0.0793181,0.0871208,0.0951018,0.103311,0.111787,0.120558,0.129641,0.139048,0.148782,0.158839,0.169212,0.179886,0.190845,0.20207,0.213537,0.22522,0.237093,0.249127,0.261293,0.273559,0.285896,0.29827,0.310651,0.323006,0.335304,0.347513,0.359602,0.371541,0.383298,0.394844,0.406151,0.417189,0.427931,0.438351,0.448421,0.458118,0.467417,0.476294,0.484728,0.492697,0.500182,0.507164,0.513625,0.519548,0.524918,0.529722,0.533948,0.537583,0.540618,0.543045,0.544858,0.546051,0.54662,0.546563,0.54588,0.544572,0.542641,0.540092,0.536931,0.533164,0.528802,0.523854,0.518333,0.512252,0.505627,0.498475,0.490813,0.482661,0.474039,0.464971,0.455479,0.445587,0.435321,0.424708,0.413775,0.40255,0.391063,0.379343,0.36742,0.355326,0.343091,0.330748,0.318327,0.30586,0.293379,0.280914,0.268497,0.256157,0.243924,0.231825,0.219888,0.208139,0.196601,0.185296,0.174243,0.163459,0.152959,0.142753,0.132848,0.123248,0.11395,0.104949,0.0962342,0.0877873,0.0795857,0.0716,0.0637945,0.0561266,0.0485476,0.0410025,0.0334306,0.0257663,0.0179397,0.00987717,0.00150035,-0.00727594,-0.016549,-0.0264368
-0.00745352,0.00564739,0.0174496,0.0281791,0.0380386,0.0472094,0.055853,0.0641128,0.0721149,0.0799694,0.0877712,0.0956008,0.103525,0.1116,0.119867,0.128362,0.137107,0.14612,0.155408,0.164973,0.174814,0.18492,0.195279,0.205876,0.21669,0.227701,0.238884,0.250212,0.26166,0.273198,0.284797,0.296428,0.308061,0.319664,0.331209,0.342664,0.354,0.365188,0.376198,0.387002,0.397572,0.407882,0.417905,0.427616,0.43699,0.446004,0.454637,0.462866,0.470671,0.478034,0.484936,0.491361,0.497293,0.502719,0.507625,0.512,0.515834,0.519118,0.521845,0.524008,0.525603,0.526626,0.527077,0.526954,0.526259,0.524995,0.523164,0.520772,0.517827,0.514336,0.510307,0.505753,0.500684,0.495114,0.489057,0.482529,0.475545,0.468124,0.460284,0.452045,0.443426,0.434449,0.425136,0.41551,0.405594,0.395412,0.384988,0.374348,0.363516,0.352518,0.341381,0.330129,0.31879,0.307388,0.295949,0.284499,0.273063,0.261666,0.250329,0.239078,0.227932,0.216913,0.20604,0.195328,0.184794,0.17445,0.164306,0.15437,0.144645,0.135133,0.125828,0.116723,0.107806,0.0990589,0.0904584,0.0819758,0.0735766,0.0652203,0.0568604,0.0484448,0.0399157,0.0312099,0.0222593,0.0129898,0.00332078,-0.00683738,-0.0175876,-0.0290518
-0.0026356,0.0110935,0.0234915,0.0347675,0.0451128,0.054701,0.0636884,0.0722153,0.0804066,0.0883722,0.0962081,0.103997,0.111809,0.119703,0.127726,0.135917,0.144303,0.152906,0.161739,0.170809,0.180116,0.189657,0.199422,0.209399,0.219572,0.229921,0.240427,0.251064,0.261809,0.272635,0.283515,0.294421,0.305324,0.316195,0.327006,0.337728,0.348332,0.35879,0.369075,0.379159,0.389017,0.398622,0.40795,0.416977,0.42568,0.434039,0.442032,0.44964,0.456844,0.463629,0.469977,0.475874,0.481307,0.486265,0.490736,0.494712,0.498184,0.501145,0.503591,0.505517,0.506921,0.507802,0.508159,0.507994,0.507309,0.506108,0.504396,0.502178,0.499464,0.496259,0.492575,0.488421,0.48381,0.478752,0.473262,0.467353,0.461041,0.454341,0.447268,0.439841,0.432077,0.423993,0.415608,0.406942,0.398013,0.388841,0.379446,0.369849,0.36007,0.35013,0.340049,0.329847,0.319547,0.309167,0.298729,0.288252,0.277756,0.26726,0.256782,0.24634,0.23595,0.225629,0.21539,0.205245,0.195207,0.185283,0.17548,0.165803,0.156252,0.146825,0.137518,0.128319,0.119216,0.11019,0.101218,0.0922725,0.0833198,0.0743211,0.0652323,0.0560036,0.0465798,0.0369002,0.0268984,0.0165013,0.00562859,-0.00580987,-0.0179167,-0.0308107
0.00373714,0.0178701,0.0306565,0.0422899,0.0529495,0.0628006,0.0719935,0.0806646,0.0889365,0.0969182,0.104706,0.112384,0.120024,0.127687,0.135425,0.143279,0.151281,0.159455,0.167819,0.176383,0.185153,0.194126,0.203298,0.212659,0.222196,0.231893,0.241731,0.251689,0.261744,0.271872,0.282047,0.292242,0.302432,0.312588,0.322683,0.33269,0.342581,0.35233,0.36191,0.371295,0.380461,0.389383,0.398039,0.406406,0.414464,0.422191,0.42957,0.436582,0.443212,0.449445,0.455266,0.460663,0.465626,0.470143,0.474208,0.477812,0.480949,0.483616,0.485808,0.487525,0.488764,0.489526,0.489814,0.489629,0.488975,0.487858,0.486282,0.484256,0.481786,0.478882,0.475552,0.471807,0.467657,0.463115,0.458191,0.4529,0.447254,0.441266,0.434951,0.428323,0.421397,0.414187,0.406709,0.398978,0.391011,0.382821,0.374426,0.36584,0.35708,0.348162,0.339102,0.329914,0.320616,0.311221,0.301746,0.292205,0.282613,0.272983,0.263329,0.253665,0.244001,0.234349,0.224719,0.215119,0.205557,0.196037,0.186563,0.177137,0.167756,0.158417,0.149112,0.13983,0.130556,0.121273,0.111958,0.102582,0.0931142,0.0835171,0.0737487,0.0637616,0.0535032,0.0429154,0.031934,0.0204885,0.00850054,-0.00411724,-0.0174634,-0.0316497
0.0116597,0.0259932,0.0389772,0.0507909,0.0616023,0.071568,0.0808323,0.0895271,0.0977721,0.105675,0.113331,0.120826,0.128231,0.135611,0.143019,0.150499,0.158086,0.165808,0.173684,0.18173,0.189951,0.198352,0.206928,0.215674,0.224578,0.233628,0.242805,0.252092,0.261466,0.270907,0.280389,0.289888,0.299378,0.308834,0.318229,0.327537,0.336733,0.34579,0.354683,0.363389,0.371884,0.380144,0.388149,0.395878,0.403312,0.410431,0.417219,0.423661,0.429742,0.435448,0.440768,0.445691,0.450209,0.454313,0.457997,0.461256,0.464086,0.466484,0.468449,0.469981,0.47108,0.471748,0.471989,0.471807,0.471205,0.470191,0.46877,0.466951,0.464741,0.462148,0.459183,0.455855,0.452174,0.44815,0.443795,0.43912,0.434136,0.428855,0.423289,0.417449,0.411348,0.404997,0.398408,0.391593,0.384564,0.377332,0.36991,0.362309,0.35454,0.346614,0.338544,0.330339,0.32201,0.313569,0.305024,0.296388,0.287668,0.278875,0.270017,0.261102,0.252138,0.243133,0.23409,0.225017,0.215915,0.206787,0.197633,0.188453,0.179241,0.169992,0.160696,0.151343,0.141916,0.132398,0.122765,0.112991,0.103044,0.0928907,0.0824896,0.0717962,0.0607606,0.0493275,0.0374359,0.0250186,0.012001,-0.00169953,-0.016175,-0.0315282
0.0211178,0.035467,0.0484727,0.0603013,0.0711108,0.0810497,0.090256,0.0988571,0.10697,0.114699,0.12214,0.129377,0.136484,0.143526,0.150556,0.157622,0.164761,0.172002,0.17937,0.186879,0.19454,0.202359,0.210334,0.218461,0.226733,0.235136,0.243657,0.252278,0.26098,0.269741,0.278541,0.287354,0.296157,0.304925,0.313634,0.322258,0.330773,0.339155,0.347379,0.355423,0.363265,0.370883,0.378257,0.385368,0.392199,0.398732,0.404952,0.410846,0.4164,0.421604,0.426447,0.430921,0.435019,0.438735,0.442064,0.445003,0.447551,0.449705,0.451467,0.452838,0.453821,0.454418,0.454634,0.454475,0.453946,0.453053,0.451805,0.450208,0.448272,0.446004,0.443414,0.440512,0.437305,0.433805,0.430021,0.425963,0.42164,0.417061,0.412237,0.407177,0.40189,0.396385,0.39067,0.384754,0.378645,0.372352,0.365881,0.359241,0.352439,0.34548,0.338374,0.331124,0.323739,0.316223,0.308583,0.300824,0.292952,0.28497,0.276883,0.268696,0.260412,0.252033,0.243562,0.235,0.226347,0.217602,0.208763,0.199825,0.190783,0.181629,0.172352,0.162941,0.153378,0.143645,0.133721,0.123579,0.113189,0.102519,0.0915296,0.0801793,0.0684209,0.0562024,0.0434665,0.0301499,0.0161833,0.00148995,-0.0140144,-0.0304224
0.0320916,0.0462874,0.059152,0.0708412,0.0815038,0.0912809,0.100305,0.108698,0.116575,0.124038,0.13118,0.138085,0.144829,0.151474,0.158078,0.164687,0.171341,0.178073,0.184905,0.191858,0.198944,0.206168,0.213533,0.221036,0.228671,0.236428,0.244294,0.252252,0.260286,0.268376,0.2765,0.284636,0.292763,0.300855,0.308889,0.316842,0.324691,0.332411,0.339982,0.34738,0.354586,0.361578,0.36834,0.374852,0.3811,0.387067,0.39274,0.398107,0.403157,0.40788,0.412269,0.416317,0.420019,0.42337,0.426368,0.429011,0.431299,0.433234,0.434816,0.436049,0.436937,0.437485,0.437698,0.437582,0.437143,0.436391,0.435331,0.433973,0.432324,0.430393,0.428189,0.425721,0.422997,0.420026,0.416816,0.413375,0.409712,0.405834,0.401748,0.397461,0.39298,0.38831,0.383458,0.378428,0.373225,0.367853,0.362316,0.356619,0.350763,0.344752,0.338587,0.332272,0.325808,0.319197,0.312439,0.305536,0.298489,0.291299,0.283965,0.276488,0.268866,0.2611,0.253188,0.245127,0.236914,0.228547,0.220019,0.211325,0.202456,0.193404,0.184156,0.1747,0.165018,0.155093,0.144902,0.134422,0.123623,0.112473,0.100938,0.0889776,0.0765476,0.0635998,0.0500811,0.035933,0.0210916,0.00548733,-0.0109558,-0.02832
0.0445574,0.0584441,0.0710167,0.0824217,0.0928005,0.102288,0.11101,0.119086,0.126625,0.133729,0.14049,0.14699,0.153303,0.159494,0.165619,0.171728,0.177859,0.184048,0.190319,0.196693,0.203183,0.209798,0.216542,0.223413,0.230407,0.237514,0.244724,0.252021,0.25939,0.266811,0.274266,0.281733,0.28919,0.296615,0.303986,0.31128,0.318474,0.325546,0.332477,0.339244,0.345828,0.352212,0.358378,0.364309,0.369991,0.37541,0.380555,0.385415,0.389981,0.394245,0.398201,0.401844,0.405171,0.408179,0.410868,0.413237,0.415288,0.417024,0.418449,0.419565,0.42038,0.420898,0.421127,0.421073,0.420744,0.420148,0.419292,0.418187,0.416839,0.415257,0.41345,0.411425,0.409191,0.406754,0.404122,0.401302,0.3983,0.395121,0.391771,0.388253,0.384572,0.380731,0.376732,0.372578,0.368269,0.363806,0.35919,0.35442,0.349495,0.344415,0.339176,0.333778,0.328219,0.322494,0.316602,0.310539,0.304302,0.297888,0.291293,0.284512,0.277542,0.270378,0.263016,0.255449,0.247673,0.239681,0.231465,0.223017,0.214327,0.205385,0.196178,0.186691,0.176909,0.166813,0.156381,0.145591,0.134414,0.122822,0.11078,0.0982527,0.0851988,0.0715738,0.057329,0.0424112,0.0267625,0.0103205,-0.00698207,-0.025217
0.0584896,0.0719229,0.0840624,0.0950477,0.105013,0.114088,0.122393,0.130045,0.13715,0.143806,0.150103,0.156123,0.16194,0.167617,0.173212,0.178774,0.184343,0.189954,0.195634,0.201404,0.207278,0.213268,0.219377,0.225605,0.23195,0.238402,0.244953,0.251588,0.258292,0.265049,0.271838,0.278641,0.285436,0.292202,0.298917,0.305561,0.312111,0.318547,0.32485,0.330999,0.336976,0.342765,0.34835,0.353715,0.358849,0.363738,0.368372,0.372744,0.376844,0.380668,0.38421,0.387468,0.39044,0.393125,0.395525,0.39764,0.399475,0.401033,0.402319,0.403339,0.404099,0.404607,0.404869,0.404895,0.404691,0.404268,0.403632,0.402793,0.401758,0.400537,0.399136,0.397564,0.395827,0.393931,0.391883,0.389687,0.387348,0.384869,0.382253,0.379502,0.376618,0.3736,0.370449,0.367163,0.36374,0.360177,0.356472,0.352619,0.348614,0.344453,0.340128,0.335636,0.330968,0.326118,0.321079,0.315845,0.310407,0.304759,0.298893,0.2928,0.286475,0.279907,0.273091,0.266016,0.258676,0.25106,0.243159,0.234962,0.226459,0.217638,0.208484,0.198983,0.189119,0.178873,0.168225,0.157152,0.145628,0.133626,0.121115,0.108062,0.094428,0.0801735,0.0652543,0.0496224,0.0332265,0.0160113,-0.00208188,-0.0211148
0.0738613,0.0867064,0.0982809,0.108718,0.118148,0.126693,0.134473,0.141598,0.148172,0.154291,0.160045,0.165512,0.170766,0.175871,0.180883,0.18585,0.190816,0.195813,0.200871,0.20601,0.211247,0.216592,0.222051,0.227624,0.23331,0.2391,0.244987,0.250958,0.256997,0.263089,0.269215,0.275357,0.281495,0.287608,0.293675,0.299677,0.305592,0.311402,0.317087,0.32263,0.328013,0.33322,0.338238,0.343052,0.347651,0.352025,0.356165,0.360064,0.363716,0.367117,0.370263,0.373154,0.375789,0.37817,0.380299,0.382179,0.383816,0.385214,0.38638,0.387321,0.388044,0.388559,0.388872,0.388993,0.38893,0.388693,0.388291,0.387731,0.387022,0.386172,0.385188,0.384077,0.382845,0.381496,0.380036,0.378468,0.376795,0.375018,0.373137,0.371153,0.369064,0.366868,0.364562,0.36214,0.359598,0.35693,0.354128,0.351186,0.348094,0.344844,0.341427,0.337831,0.334048,0.330066,0.325874,0.321461,0.316816,0.311929,0.306787,0.301379,0.295695,0.289723,0.283452,0.276871,0.269969,0.262733,0.255153,0.247217,0.238911,0.230222,0.221136,0.211638,0.201711,0.191337,0.180496,0.169166,0.157325,0.144946,0.132,0.118458,0.104284,0.0894437,0.0738964,0.0576001,0.0405096,0.0225771,0.003752,-0.0160178
0.090645,0.102775,0.11366,0.123429,0.132205,0.14011,0.147258,0.153757,0.159708,0.165206,0.170336,0.175179,0.179804,0.184277,0.188652,0.192978,0.197298,0.201645,0.206048,0.210528,0.215103,0.219783,0.224575,0.229479,0.234495,0.239616,0.244832,0.250134,0.255505,0.260932,0.266396,0.27188,0.277364,0.282828,0.288253,0.29362,0.298908,0.3041,0.309178,0.314124,0.318923,0.32356,0.328022,0.332298,0.336376,0.340249,0.343909,0.34735,0.350569,0.353562,0.356328,0.358868,0.361183,0.363276,0.365151,0.366812,0.368267,0.369522,0.370585,0.371463,0.372165,0.372701,0.37308,0.37331,0.373403,0.373366,0.373209,0.37294,0.372568,0.372099,0.371541,0.370899,0.370179,0.369385,0.368519,0.367584,0.36658,0.365508,0.364365,0.363149,0.361856,0.360481,0.359018,0.35746,0.355797,0.354021,0.352121,0.350087,0.347905,0.345564,0.34305,0.340349,0.337447,0.33433,0.330982,0.32739,0.323537,0.319409,0.314992,0.31027,0.30523,0.299856,0.294135,0.288052,0.281594,0.274748,0.267499,0.259833,0.251736,0.243195,0.234193,0.224715,0.214744,0.204263,0.193253,0.181693,0.169562,0.156835,0.143487,0.12949,0.114814,0.0994255,0.0832913,0.066374,0.0486346,0.0300323,0.0105245,-0.00993196
0.108813,0.120109,0.130187,0.13917,0.147183,0.15434,0.160755,0.166532,0.171771,0.176563,0.180993,0.18514,0.189072,0.192853,0.196539,0.200176,0.203806,0.207465,0.21118,0.214973,0.21886,0.222854,0.22696,0.231181,0.235514,0.239954,0.244493,0.249119,0.25382,0.258579,0.26338,0.268206,0.273038,0.277857,0.282645,0.287381,0.292049,0.29663,0.301107,0.305465,0.30969,0.313767,0.317684,0.321432,0.325002,0.328386,0.331578,0.334575,0.337373,0.339972,0.342372,0.344575,0.346584,0.348404,0.350039,0.351497,0.352785,0.353911,0.354884,0.355713,0.356409,0.35698,0.357437,0.357791,0.35805,0.358225,0.358324,0.358357,0.358331,0.358253,0.358129,0.357965,0.357764,0.35753,0.357265,0.356967,0.356638,0.356274,0.355873,0.355428,0.354933,0.354382,0.353764,0.35307,0.352288,0.351406,0.350409,0.349283,0.348013,0.346581,0.344972,0.343167,0.341148,0.338898,0.336398,0.333628,0.330571,0.327208,0.32352,0.31949,0.3151,0.310331,0.305168,0.299594,0.293591,0.287145,0.280238,0.272857,0.264985,0.256607,0.247706,0.238267,0.228274,0.217708,0.206553,0.194787,0.182393,0.169346,0.155625,0.141205,0.126058,0.110157,0.0934724,0.0759716,0.0576221,0.0383896,0.0182394,-0.00286337
0.128338,0.138686,0.147844,0.155933,0.163075,0.169383,0.174966,0.179929,0.184368,0.188373,0.192028,0.195408,0.198584,0.201615,0.204557,0.207457,0.210356,0.213288,0.21628,0.219355,0.22253,0.225814,0.229215,0.232735,0.236372,0.24012,0.243972,0.247917,0.251941,0.256029,0.260166,0.264334,0.268515,0.272691,0.276843,0.280953,0.285005,0.288981,0.292865,0.296642,0.300299,0.303824,0.307206,0.310436,0.313507,0.316412,0.319147,0.321711,0.3241,0.326317,0.328363,0.330242,0.331957,0.333516,0.334925,0.336191,0.337325,0.338334,0.33923,0.340022,0.340722,0.34134,0.341887,0.342374,0.342811,0.343207,0.343573,0.343917,0.344245,0.344566,0.344884,0.345205,0.34553,0.345863,0.346203,0.34655,0.3469,0.34725,0.347594,0.347924,0.348233,0.348509,0.348741,0.348916,0.349018,0.349033,0.348944,0.348731,0.348377,0.34786,0.347161,0.346258,0.34513,0.343754,0.342108,0.34017,0.337917,0.335327,0.332379,0.329051,0.325322,0.321171,0.316578,0.311525,0.305992,0.29996,0.293413,0.286333,0.278703,0.270506,0.261726,0.252347,0.242352,0.231724,0.220446,0.2085,0.195867,0.182527,0.168461,0.153646,0.138059,0.121675,0.104471,0.0864185,0.0674911,0.0476611,0.0269008,0.00518285
0.149192,0.158484,0.166614,0.173704,0.179873,0.185232,0.189891,0.19395,0.197504,0.200643,0.203448,0.205994,0.208349,0.210573,0.212719,0.214834,0.216958,0.219124,0.22136,0.223686,0.22612,0.228672,0.231348,0.23415,0.237075,0.24012,0.243275,0.246529,0.24987,0.253283,0.256752,0.26026,0.263789,0.267322,0.270841,0.274329,0.277768,0.281142,0.284438,0.28764,0.290736,0.293716,0.29657,0.29929,0.30187,0.304305,0.306592,0.308731,0.310722,0.312567,0.314269,0.315833,0.317265,0.318573,0.319765,0.320851,0.32184,0.322743,0.323572,0.324337,0.325051,0.325725,0.326371,0.327,0.327623,0.32825,0.328889,0.329551,0.330242,0.330968,0.331735,0.332547,0.333405,0.33431,0.335262,0.336257,0.337293,0.338362,0.339457,0.340569,0.341686,0.342796,0.343884,0.344933,0.345928,0.346848,0.347673,0.348382,0.348953,0.34936,0.349582,0.349592,0.349364,0.348874,0.348095,0.347001,0.345566,0.343764,0.34157,0.338959,0.335907,0.33239,0.328386,0.323871,0.318825,0.313227,0.307058,0.300299,0.292931,0.284936,0.276299,0.267001,0.257027,0.246359,0.234982,0.222879,0.210032,0.196425,0.182038,0.166854,0.150853,0.134014,0.116316,0.0977393,0.0782607,0.057859,0.0365132,0.0142033
0.171349,0.17948,0.18648,0.192469,0.197566,0.201882,0.205524,0.208593,0.211181,0.213376,0.21526,0.216904,0.218376,0.219735,0.221033,0.222315,0.223621,0.224983,0.226427,0.227974,0.22964,0.231435,0.233364,0.23543,0.237629,0.239956,0.242402,0.244958,0.247608,0.25034,0.253137,0.255982,0.258858,0.261748,0.264634,0.267499,0.270327,0.273104,0.275814,0.278446,0.280986,0.283426,0.285758,0.287974,0.290069,0.292041,0.293888,0.29561,0.29721,0.29869,0.300055,0.301313,0.30247,0.303536,0.30452,0.305432,0.306285,0.307089,0.307858,0.308605,0.30934,0.310078,0.310829,0.311607,0.312422,0.313285,0.314205,0.315191,0.31625,0.317387,0.318608,0.319916,0.321312,0.322795,0.324364,0.326015,0.327741,0.329535,0.331388,0.333288,0.335221,0.337172,0.339124,0.341058,0.342954,0.344789,0.34654,0.348183,0.34969,0.351036,0.352192,0.353129,0.353818,0.35423,0.354335,0.354103,0.353504,0.352509,0.35109,0.349216,0.346862,0.344,0.340605,0.336651,0.332115,0.326973,0.321205,0.314789,0.307707,0.299938,0.291466,0.282273,0.272343,0.261659,0.250207,0.23797,0.224934,0.211082,0.1964,0.18087,0.164478,0.147206,0.129039,0.109959,0.0899498,0.0689963,0.0470832,0.0241972
0.194781,0.201651,0.20742,0.212212,0.216142,0.219324,0.221861,0.223855,0.225397,0.226574,0.227465,0.228142,0.228671,0.229108,0.229506,0.229908,0.230353,0.230871,0.231489,0.232226,0.233096,0.234109,0.23527,0.23658,0.238036,0.239631,0.241358,0.243203,0.245156,0.247199,0.249319,0.251497,0.253717,0.255961,0.258213,0.260457,0.262676,0.264856,0.266983,0.269046,0.271034,0.272938,0.274751,0.276468,0.278084,0.279597,0.281009,0.28232,0.283534,0.284655,0.28569,0.286647,0.287535,0.288364,0.289145,0.28989,0.290612,0.291324,0.292038,0.29277,0.293532,0.294338,0.2952,0.296131,0.297143,0.298246,0.29945,0.300764,0.302194,0.303747,0.305427,0.307235,0.309173,0.311239,0.31343,0.315741,0.318164,0.32069,0.323308,0.326003,0.32876,0.331562,0.334389,0.337218,0.340027,0.342791,0.345482,0.348073,0.350534,0.352834,0.354943,0.356827,0.358453,0.359788,0.360799,0.361452,0.361713,0.361549,0.360928,0.359818,0.358187,0.356007,0.353247,0.34988,0.34588,0.341221,0.33588,0.329835,0.323064,0.315547,0.307266,0.298203,0.288342,0.277668,0.266164,0.253818,0.240615,0.226542,0.211585,0.195732,0.178969,0.161285,0.142666,0.123101,0.102578,0.0810874,0.0586191,0.0351666
0.219461,0.224973,0.229416,0.232916,0.235588,0.237545,0.238893,0.23973,0.240148,0.240234,0.240064,0.23971,0.239235,0.238696,0.238143,0.237618,0.237159,0.236796,0.236552,0.236447,0.236493,0.236699,0.23707,0.237605,0.2383,0.239149,0.240142,0.241268,0.242512,0.24386,0.245295,0.246802,0.248362,0.249958,0.251575,0.253195,0.254804,0.256387,0.257933,0.259429,0.260866,0.262236,0.263533,0.264753,0.265892,0.266951,0.267931,0.268834,0.269665,0.270431,0.27114,0.2718,0.272422,0.273017,0.273599,0.274179,0.274773,0.275395,0.276058,0.276778,0.277569,0.278445,0.27942,0.280506,0.281716,0.283062,0.284552,0.286196,0.288,0.28997,0.292111,0.294422,0.296906,0.299558,0.302376,0.305352,0.308478,0.311742,0.315132,0.318631,0.322223,0.325886,0.329599,0.333337,0.337073,0.340781,0.34443,0.347987,0.351422,0.354698,0.357781,0.360635,0.363223,0.365508,0.367452,0.369017,0.370166,0.370863,0.371071,0.370754,0.369878,0.368409,0.366316,0.363568,0.360135,0.35599,0.351107,0.345461,0.339031,0.331795,0.323734,0.314829,0.305064,0.294424,0.282895,0.270463,0.257117,0.242844,0.227634,0.211477,0.194363,0.176283,0.157229,0.137192,0.116168,0.0941486,0.0711322,0.0471169