-0,-0,-0,-0,-0,-0,-0,-0,-0,-0,-0,-0,-0,-0,-0,-0,-0,-0,-0,-0,-0,-0,-0,-0,-0,-0,-0,-0,-0,-0,-0,-0,-0,-0,-0,-0,-0,-0,-0,-0,-0,-0,-0,-0,-0,-0,-0,-0,-0,-0,-0,-0,-0,-0,-0,-0,-0,-0,-0,-0,-0,-0,-0,-0,-0,-0,-0,-0,-0,-0,-0,-0,-0,-0,-0,-0,-0,-0,-0,-0,-0,-0,-0,-0,-0,-0,-0,-0,-0,-0,-0,-0,-0,-0,-0,-0,-0,-0,-0,-0,-0,-0,-0,-0,-0,-0,-0,-0,-0,-0,-0,-0,-0,-0,-0,-0,-0,-0,-0,-0,-0,-0,-0,-0,-0,-0,-0,-0
-0,-6.94691e-06,-1.1423e-05,-1.21107e-05,-1.0023e-05,-6.18747e-06,-1.32754e-06,4.08424e-06,9.74132e-06,1.54426e-05,2.10547e-05,2.64886e-05,3.16855e-05,3.66073e-05,4.12306e-05,4.5543e-05,4.95393e-05,5.32202e-05,5.65905e-05,5.96576e-05,6.24311e-05,6.49217e-05,6.71411e-05,6.9101e-05,7.08134e-05,7.22899e-05,7.35415e-05,7.45788e-05,7.54114e-05,7.60484e-05,7.64978e-05,7.67666e-05,7.68611e-05,7.67867e-05,7.65478e-05,7.6148e-05,7.55902e-05,7.48765e-05,7.40083e-05,7.29865e-05,7.18115e-05,7.04834e-05,6.90017e-05,6.73659e-05,6.55753e-05,6.3629e-05,6.15264e-05,5.92668e-05,5.68498e-05,5.42754e-05,5.15438e-05,4.86558e-05,4.56126e-05,4.24163e-05,3.90694e-05,3.55752e-05,3.19379e-05,2.81623e-05,2.42545e-05,2.02211e-05,1.607e-05,1.18098e-05,7.45025e-06,3.00202e-06,-1.52319e-06,-6.11275e-06,-1.0753e-05,-1.54296e-05,-2.01269e-05,-2.4829e-05,-2.95187e-05,-3.41784e-05,-3.879e-05,-4.33346e-05,-4.7793e-05,-5.21458e-05,-5.63733e-05,-6.04556e-05,-6.43732e-05,-6.81065e-05,-7.16363e-05,-7.49437e-05,-7.80108e-05,-8.082e-05,-8.33547e-05,-8.55995e-05,-8.754e-05,-8.91629e-05,-9.04566e-05,-9.14107e-05,-9.20166e-05,-9.22673e-05,-9.21577e-05,-9.16843e-05,-9.08458e-05,-8.96425e-05,-8.8077e-05,-8.61536e-05,-8.3879e-05,-8.12616e-05,-7.83118e-05,-7.50422e-05,-7.14673e-05,-6.76035e-05,-6.34692e-05,-5.9085e-05,-5.44732e-05,-4.96584e-05,-4.46675e-05,-3.95297e-05,-3.4277e-05,-2.89445e-05,-2.35711e-05,-1.82002e-05,-1.28812e-05,-7.67072e-06,-2.63534e-06,2.14528e-06,6.57349e-06,1.05267e-05,1.3847e-05,1.63268e-05,1.7688e-05,1.75611e-05,1.54871e-05,1.10545e-05,4.59667e-06,-0
-0,-2.2221e-05,-3.28767e-05,-3.2815e-05,-2.46662e-05,-1.09777e-05,6.25881e-06,2.55965e-05,4.60104e-05,6.67795e-05,8.73976e-05,0.000107511,0.000126872,0.000145316,0.00016273,0.00017905,0.000194237,0.000208279,0.000221182,0.000232962,0.000243646,0.000253267,0.000261862,0.000269469,0.000276129,0.000281881,0.000286765,0.000290816,0.000294071,0.000296559,0.000298312,0.000299355,0.00029971,0.000299398,0.000298435,0.000296835,0.00029461,0.000291767,0.000288313,0.000284253,0.000279588,0.000274319,0.000268447,0.000261969,0.000254886,0.000247194,0.000238894,0.000229983,0.000220461,0.000210331,0.000199594,0.000188254,0.000176319,0.000163798,0.0001507,0.000137041,0.000122838,0.000108111,9.2884e-05,7.71837e-05,6.10411e-05,4.44904e-05,2.75698e-05,1.03209e-05,-7.2109e-06,-2.49766e-05,-4.29238e-05,-6.09965e-05,-7.91358e-05,-9.72796e-05,-0.000115363,-0.000133319,-0.000151077,-0.000168568,-0.000185717,-0.00020245,-0.000218694,-0.000234374,-0.000249415,-0.000263743,-0.000277286,-0.000289974,-0.000301738,-0.000312513,-0.000322236,-0.00033085,-0.000338299,-0.000344536,-0.000349516,-0.000353201,-0.000355558,-0.000356562,-0.000356194,-0.000354441,-0.000351298,-0.000346769,-0.000340862,-0.000333596,-0.000324995,-0.000315093,-0.00030393,-0.000291555,-0.000278023,-0.000263399,-0.000247755,-0.000231169,-0.00021373,-0.000195533,-0.000176683,-0.000157296,-0.000137496,-0.000117422,-9.72274e-05,-7.70817e-05,-5.71776e-05,-3.77352e-05,-1.90097e-05,-1.30206e-06,1.50268e-05,2.95372e-05,4.16862e-05,5.07973e-05,5.60317e-05,5.63821e-05,5.07581e-05,3.83548e-05,1.97842e-05,-0
-0,-3.98965e-05,-5.54989e-05,-5.15432e-05,-3.28984e-05,-3.84869e-06,3.21671e-05,7.25203e-05,0.000115252,0.000158921,0.000202476,0.000245155,0.000286413,0.000325864,0.000363247,0.00039839,0.000431192,0.000461605,0.000489619,0.000515255,0.000538555,0.000559577,0.000578389,0.000595066,0.000609686,0.000622328,0.000633068,0.000641983,0.000649143,0.000654614,0.000658456,0.000660724,0.000661465,0.000660723,0.000658531,0.000654921,0.000649917,0.000643537,0.000635796,0.000626704,0.000616268,0.000604491,0.000591374,0.000576917,0.00056112,0.000543979,0.000525496,0.000505669,0.000484502,0.000461998,0.000438167,0.000413021,0.000386575,0.000358851,0.000329876,0.000299684,0.000268314,0.000235812,0.000202232,0.000167635,0.000132089,9.56712e-05,5.84652e-05,2.05632e-05,-1.7935e-05,-5.6922e-05,-9.6283e-05,-0.000135896,-0.000175632,-0.000215357,-0.000254929,-0.000294202,-0.000333026,-0.000371246,-0.000408706,-0.000445245,-0.000480703,-0.000514918,-0.000547731,-0.000578983,-0.000608518,-0.000636185,-0.000661837,-0.000685333,-0.000706541,-0.000725335,-0.000741599,-0.00075523,-0.000766132,-0.000774224,-0.000779437,-0.000781717,-0.000781023,-0.000777329,-0.000770627,-0.000760921,-0.000748235,-0.000732607,-0.000714093,-0.000692765,-0.000668713,-0.000642042,-0.000612877,-0.000581356,-0.000547637,-0.000511895,-0.000474323,-0.000435133,-0.000394555,-0.000352844,-0.000310276,-0.000267156,-0.000223819,-0.000180641,-0.000138041,-9.64957e-05,-5.65527e-05,-1.88482e-05,1.5869e-05,4.67081e-05,7.26028e-05,9.22759e-05,0.000104218,0.000106716,9.8004e-05,7.67193e-05,4.29213e-05,-0
-0,-5.52516e-05,-7.24694e-05,-6.03896e-05,-2.63913e-05,2.33899e-05,8.40107e-05,0.000151594,0.000223156,0.000296432,0.000369718,0.000441747,0.000511587,0.000578565,0.000642206,0.000702189,0.000758311,0.000810461,0.000858598,0.000902732,0.000942916,0.000979228,0.00101177,0.00104065,0.001066,0.00108794,0.00110658,0.00112206,0.00113448,0.00114396,0.00115059,0.00115447,0.00115567,0.00115426,0.0011503,0.00114385,0.00113495,0.00112363,0.00110991,0.00109382,0.00107536,0.00105455,0.0010314,0.00100589,0.00097804,0.000947844,0.000915304,0.000880425,0.000843214,0.000803684,0.000761851,0.000717741,0.000671386,0.000622827,0.000572113,0.000519305,0.000464475,0.000407706,0.000349094,0.000288746,0.000226784,0.000163341,9.85654e-05,3.26171e-05,-3.433e-05,-0.000102089,-0.000170462,-0.000239237,-0.000308192,-0.000377094,-0.000445701,-0.000513762,-0.000581017,-0.000647203,-0.000712049,-0.000775282,-0.000836628,-0.00089581,-0.000952555,-0.00100659,-0.00105766,-0.00110549,-0.00114984,-0.00119047,-0.00122716,-0.00125968,-0.00128785,-0.00131148,-0.00133042,-0.00134452,-0.00135368,-0.0013578,-0.0013568,-0.00135066,-0.00133934,-0.00132288,-0.00130129,-0.00127466,-0.00124308,-0.00120667,-0.00116559,-0.00112003,-0.00107019,-0.00101633,-0.000958704,-0.00089763,-0.000833438,-0.000766497,-0.00069721,-0.000626016,-0.000553397,-0.000479882,-0.000406053,-0.000332554,-0.000260106,-0.000189519,-0.000121715,-5.77513e-05,1.14928e-06,5.35615e-05,9.78207e-05,0.00013199,0.00015385,0.000160944,0.000150746,0.000121034,7.05687e-05,-0
-0,-6.49166e-05,-7.86307e-05,-5.32876e-05,1.31603e-06,7.72093e-05,0.00016796,0.000268445,0.000374638,0.000483409,0.000592353,0.000699638,0.000803889,0.000904088,0.000999504,0.00108962,0.00117411,0.00125277,0.0013255,0.0013923,0.0014532,0.00150831,0.00155776,0.00160169,0.00164028,0.00167369,0.00170209,0.00172567,0.00174458,0.00175897,0.00176899,0.00177477,0.00177643,0.00177408,0.00176779,0.00175764,0.00174371,0.00172604,0.00170466,0.00167962,0.00165093,0.00161861,0.00158267,0.00154312,0.00149996,0.00145319,0.00140284,0.00134889,0.00129139,0.00123033,0.00116577,0.00109774,0.00102629,0.000951491,0.000873427,0.000792193,0.000707903,0.000620687,0.000530694,0.000438092,0.00034307,0.000245832,0.000146607,4.56408e-05,-5.68011e-05,-0.000160434,-0.000264954,-0.00037004,-0.000475354,-0.000580544,-0.000685241,-0.000789066,-0.000891627,-0.000992524,-0.00109135,-0.00118769,-0.00128114,-0.00137128,-0.00145769,-0.00153997,-0.00161772,-0.00169055,-0.0017581,-0.00181998,-0.00187588,-0.00192547,-0.00196845,-0.00200456,-0.00203356,-0.00205524,-0.00206943,-0.002076,-0.00207483,-0.00206587,-0.0020491,-0.00202454,-0.00199224,-0.00195231,-0.00190491,-0.00185022,-0.00178847,-0.00171996,-0.001645,-0.00156396,-0.00147727,-0.00138538,-0.00128881,-0.00118812,-0.00108392,-0.000976891,-0.000867755,-0.00075732,-0.000646467,-0.000536171,-0.000427509,-0.00032169,-0.000220071,-0.00012419,-3.58017e-05,4.30845e-05,0.000110167,0.000162823,0.000198098,0.00021275,0.000203377,0.000166644,9.96176e-05,-0
-0,-6.66076e-05,-7.02203e-05,-2.56357e-05,5.52377e-05,0.00016273,0.000289,0.000427729,0.000573874,0.000723446,0.00087332,0.00102108,0.00116487,0.0013033,0.00143534,0.00156027,0.00167758,0.00178697,0.00188827,0.00198143,0.00206648,0.00214353,0.00221272,0.00227426,0.00232833,0.00237517,0.00241499,0.00244803,0.00247448,0.00249457,0.00250848,0.00251638,0.00251843,0.00251478,0.00250554,0.00249082,0.00247071,0.00244527,0.00241457,0.00237865,0.00233755,0.00229128,0.00223988,0.00218335,0.0021217,0.00205496,0.00198313,0.00190624,0.00182432,0.00173741,0.00164556,0.00154883,0.00144731,0.0013411,0.00123031,0.0011151,0.000995625,0.000872074,0.000744663,0.000613631,0.000479246,0.000341803,0.000201622,5.90522e-05,-8.55319e-05,-0.000231729,-0.000379112,-0.000527231,-0.000675613,-0.000823762,-0.000971166,-0.00111729,-0.0012616,-0.00140352,-0.0015425,-0.00167796,-0.00180932,-0.00193601,-0.00205745,-0.00217308,-0.00228235,-0.00238472,-0.00247967,-0.0025667,-0.00264534,-0.00271515,-0.00277572,-0.00282668,-0.00286771,-0.00289851,-0.00291885,-0.00292854,-0.00292744,-0.00291547,-0.00289259,-0.00285884,-0.0028143,-0.00275913,-0.00269352,-0.00261775,-0.00253215,-0.00243712,-0.00233311,-0.00222064,-0.0021003,-0.00197274,-0.00183868,-0.0016989,-0.00155428,-0.00140574,-0.00125432,-0.00110114,-0.000947428,-0.000794528,-0.00064393,-0.000497284,-0.000356429,-0.000223429,-0.000100605,9.42247e-06,0.000103693,0.00017888,0.000231276,0.00025681,0.000251112,0.000209604,0.000127564,-0
-0,-5.88243e-05,-4.45824e-05,2.59743e-05,0.000139209,0.000283965,0.000451122,0.000633255,0.000824359,0.00101962,0.00121521,0.00140812,0.00159602,0.00177712,0.00195009,0.00211395,0.00226803,0.00241189,0.00254527,0.00266808,0.00278031,0.00288208,0.00297356,0.00305495,0.00312651,0.0031885,0.00324119,0.00328487,0.00331979,0.00334622,0.00336439,0.00337452,0.00337683,0.00337147,0.00335863,0.00333841,0.00331095,0.00327634,0.00323465,0.00318595,0.00313028,0.00306768,0.00299818,0.00292181,0.0028386,0.00274856,0.00265172,0.00254813,0.00243782,0.00232086,0.00219733,0.00206732,0.00193095,0.00178836,0.00163972,0.00148522,0.00132509,0.0011596,0.000989017,0.000813684,0.000633954,0.000450224,0.000262924,7.25187e-05,-0.000120491,-0.000315572,-0.000512156,-0.000709645,-0.000907413,-0.0011048,-0.00130114,-0.00149572,-0.00168782,-0.00187671,-0.00206164,-0.00224185,-0.00241659,-0.0025851,-0.00274662,-0.00290042,-0.00304577,-0.00318196,-0.00330831,-0.00342417,-0.00352891,-0.00362197,-0.0037028,-0.00377093,-0.00382591,-0.00386739,-0.00389504,-0.00390862,-0.00390794,-0.0038929,-0.00386346,-0.00381967,-0.00376163,-0.00368955,-0.00360371,-0.00350445,-0.00339222,-0.00326755,-0.00313104,-0.00298338,-0.00282534,-0.0026578,-0.0024817,-0.00229809,-0.00210811,-0.001913,-0.00171413,-0.00151297,-0.00131113,-0.00111038,-0.000912638,-0.000720043,-0.00053495,-0.000359972,-0.000198021,-5.23493e-05,7.3416e-05,0.000175234,0.000248627,0.000288669,0.000289984,0.000246728,0.000152491,-0
-0,-4.06103e-05,9.93255e-08,0.000103997,0.000256096,0.000443999,0.000657468,0.000888084,0.00112896,0.00137452,0.00162025,0.0018626,0.00209873,0.00232649,0.00254421,0.00275067,0.00294501,0.00312664,0.00329521,0.00345056,0.00359266,0.00372161,0.00383759,0.00394083,0.00403162,0.00411026,0.00417708,0.0042324,0.00427655,0.00430983,0.00433253,0.00434493,0.00434725,0.00433974,0.00432257,0.00429592,0.00425992,0.00421471,0.00416037,0.004097,0.00402465,0.00394337,0.00385322,0.00375423,0.00364644,0.00352988,0.0034046,0.00327067,0.00312814,0.0029771,0.00281767,0.00264997,0.00247416,0.00229043,0.00209901,0.00190016,0.00169416,0.00148136,0.00126214,0.00103692,0.000806157,0.000570365,0.000330097,8.59487e-05,-0.000161439,-0.000411385,-0.000663165,-0.000916017,-0.00116914,-0.00142171,-0.00167286,-0.00192169,-0.00216731,-0.00240876,-0.00264512,-0.00287542,-0.00309871,-0.00331402,-0.00352042,-0.00371695,-0.00390271,-0.00407681,-0.00423837,-0.00438658,-0.00452067,-0.0046399,-0.0047436,-0.00483115,-0.00490203,-0.00495575,-0.00499193,-0.00501025,-0.00501048,-0.00499249,-0.00495623,-0.00490176,-0.00482923,-0.00473889,-0.00463109,-0.00450628,-0.00436503,-0.004208,-0.00403596,-0.00384979,-0.00365047,-0.00343912,-0.00321693,-0.00298523,-0.00274548,-0.00249926,-0.00224827,-0.00199439,-0.00173964,-0.00148622,-0.00123655,-0.000993256,-0.000759239,-0.000537682,-0.000332103,-0.000146392,1.5149e-05,0.00014776,0.000246191,0.000304655,0.000316781,0.000275522,0.000172967,-0
-0,-1.13808e-05,6.50218e-05,0.000210143,0.000407983,0.000645147,0.000910457,0.00119463,0.00148999,0.00179025,0.00209031,0.00238605,0.00267422,0.00295224,0.00321815,0.00347049,0.00370819,0.00393052,0.00413703,0.00432748,0.00450181,0.00466009,0.00480251,0.00492933,0.00504085,0.00513744,0.00521945,0.00528726,0.00534125,0.00538177,0.00540915,0.00542373,0.00542578,0.00541557,0.00539333,0.00535925,0.00531352,0.00525628,0.00518766,0.00510775,0.00501663,0.00491439,0.00480108,0.00467675,0.00454145,0.00439526,0.00423823,0.00407043,0.00389198,0.00370298,0.00350358,0.00329395,0.0030743,0.00284488,0.00260597,0.00235791,0.00210106,0.00183586,0.00156277,0.00128234,0.000995127,0.000701781,0.000402986,9.94829e-05,-0.000207935,-0.000518422,-0.000831084,-0.00114498,-0.00145913,-0.0017725,-0.00208403,-0.00239263,-0.00269718,-0.00299652,-0.00328951,-0.00357497,-0.00385172,-0.00411859,-0.00437442,-0.00461805,-0.00484837,-0.00506429,-0.00526474,-0.00544873,-0.0056153,-0.00576357,-0.0058927,-0.00600195,-0.00609066,-0.00615825,-0.00620425,-0.00622826,-0.00623001,-0.00620935,-0.0061662,-0.00610065,-0.00601287,-0.00590317,-0.005772,-0.0056199,-0.00544756,-0.00525582,-0.0050456,-0.00481801,-0.00457425,-0.00431567,-0.00404377,-0.00376018,-0.00346668,-0.00316521,-0.00285786,-0.00254693,-0.00223486,-0.00192434,-0.00161827,-0.00131982,-0.00103244,-0.000759888,-0.000506306,-0.000276225,-7.46232e-05,9.30272e-05,0.000220708,0.000301794,0.000328965,0.000294078,0.000187946,-0
-0,2.91948e-05,0.000150931,0.00034555,0.000596326,0.000889089,0.0012119,0.00155473,0.00190923,0.00226851,0.00262689,0.00297978,0.00332349,0.00365509,0.00397234,0.00427351,0.00455735,0.00482299,0.00506986,0.00529766,0.00550628,0.00569577,0.00586632,0.00601821,0.00615177,0.00626738,0.00636547,0.00644645,0.00651074,0.00655875,0.00659087,0.00660746,0.00660886,0.00659537,0.00656725,0.00652475,0.00646806,0.00639737,0.00631282,0.00621453,0.00610261,0.00597715,0.00583823,0.00568592,0.0055203,0.00534145,0.00514945,0.00494441,0.00472646,0.00449576,0.00425249,0.00399687,0.00372916,0.00344967,0.00315877,0.00285685,0.00254439,0.0022219,0.00188997,0.00154925,0.00120043,0.000844302,0.000481687,0.000113487,-0.000259337,-0.000635766,-0.00101472,-0.00139507,-0.00177562,-0.00215515,-0.00253238,-0.00290599,-0.00327464,-0.00363695,-0.00399154,-0.004337,-0.00467192,-0.0049949,-0.00530454,-0.00559948,-0.00587837,-0.00613991,-0.00638283,-0.00660593,-0.00680807,-0.0069882,-0.00714532,-0.00727854,-0.00738707,-0.00747021,-0.00752741,-0.00755819,-0.00756222,-0.00753931,-0.0074894,-0.00741256,-0.00730902,-0.00717913,-0.00702344,-0.00684259,-0.00663744,-0.00640894,-0.00615825,-0.00588667,-0.00559565,-0.00528681,-0.00496195,-0.00462302,-0.00427216,-0.00391168,-0.00354408,-0.00317209,-0.00279862,-0.00242684,-0.00206017,-0.00170231,-0.00135729,-0.00102947,-0.000723587,-0.000444829,-0.000198843,8.1963e-06,0.000169524,0.000277712,0.000324564,0.000300967,0.000196675,-0
-0,8.12737e-05,0.000258249,0.000510927,0.000822087,0.00117699,0.00156308,0.00196974,0.00238806,0.00281059,0.00323117,0.00364479,0.00404736,0.00443564,0.0048071,0.0051598,0.00549229,0.00580356,0.00609296,0.00636009,0.0066048,0.00682714,0.00702728,0.0072055,0.00736218,0.00749773,0.00761261,0.00770728,0.00778221,0.00783786,0.00787465,0.00789301,0.00789331,0.00787589,0.00784106,0.00778909,0.00772022,0.00763465,0.00753255,0.00741407,0.00727935,0.00712848,0.00696157,0.00677872,0.00658003,0.00636559,0.00613553,0.00588998,0.0056291,0.0053531,0.0050622,0.00475669,0.00443687,0.00410314,0.00375593,0.00339572,0.00302309,0.00263866,0.00224313,0.00183727,0.00142193,0.000998019,0.000566536,0.000128545,-0.000314816,-0.000762339,-0.00121275,-0.00166471,-0.00211681,-0.00256762,-0.00301561,-0.00345925,-0.00389695,-0.0043271,-0.00474806,-0.00515818,-0.00555581,-0.0059393,-0.00630701,-0.00665734,-0.0069887,-0.00729956,-0.00758845,-0.00785396,-0.00809474,-0.00830954,-0.00849722,-0.00865673,-0.00878712,-0.00888759,-0.00895747,-0.00899621,-0.00900343,-0.00897889,-0.00892251,-0.00883439,-0.00871478,-0.00856412,-0.00838301,-0.00817225,-0.00793281,-0.00766583,-0.00737267,-0.00705484,-0.00671407,-0.00635225,-0.0059715,-0.0055741,-0.00516257,-0.00473961,-0.00430816,-0.00387137,-0.00343265,-0.00299567,-0.00256438,-0.00214303,-0.00173622,-0.00134892,-0.000986479,-0.000654724,-0.000359963,-0.000109061,9.05033e-05,0.000230546,0.000302075,0.000295138,0.000198624,-0
-0,0.000144895,0.000387162,0.000706656,0.00108585,0.00150959,0.00196488,0.00244062,0.00292743,0.00341742,0.00390403,0.00438184,0.00484645,0.00529432,0.00572268,0.00612937,0.00651279,0.0068718,0.00720564,0.00751385,0.00779625,0.00805284,0.00828381,0.00848946,0.00867017,0.00882639,0.00895862,0.00906737,0.00915315,0.00921646,0.00925779,0.00927759,0.00927628,0.00925424,0.00921183,0.00914933,0.00906703,0.00896516,0.00884391,0.00870347,0.00854397,0.00836556,0.00816835,0.00795248,0.00771805,0.00746521,0.00719409,0.00690488,0.00659778,0.00627303,0.00593091,0.00557175,0.00519596,0.00480397,0.00439632,0.00397359,0.00353643,0.00308561,0.00262193,0.00214631,0.00165973,0.00116328,0.000658104,0.000145453,-0.000373348,-0.000896893,-0.0014237,-0.00195221,-0.0024808,-0.00300779,-0.00353143,-0.00404993,-0.00456145,-0.00506413,-0.00555607,-0.00603537,-0.00650011,-0.00694839,-0.00737831,-0.00778801,-0.00817567,-0.00853953,-0.00887786,-0.00918903,-0.00947151,-0.00972385,-0.0099447,-0.0101329,-0.0102872,-0.0104069,-0.0104911,-0.0105391,-0.0105506,-0.0105252,-0.0104628,-0.0103636,-0.0102279,-0.010056,-0.00984888,-0.00960727,-0.00933234,-0.00902541,-0.00868804,-0.00832199,-0.00792925,-0.007512,-0.0070727,-0.00661397,-0.00613872,-0.00565006,-0.00515136,-0.00464625,-0.00413863,-0.00363267,-0.00313288,-0.00264406,-0.00217138,-0.00172042,-0.00129716,-0.00090804,-0.000560025,-0.000260642,-1.80563e-05,0.000158851,0.000260372,0.000275835,0.000193432,-0
-0,0.000220015,0.000537693,0.000932879,0.00138789,0.00188731,0.00241781,0.00296795,0.00352798,0.00408964,0.00464604,0.00519143,0.00572115,0.00623139,0.00671917,0.00718216,0.00761861,0.00802726,0.00840727,0.00875812,0.00907958,0.00937167,0.00963454,0.00986851,0.010074,0.0102515,0.0104015,0.0105246,0.0106213,0.0106922,0.0107378,0.0107587,0.0107552,0.0107278,0.0106769,0.0106028,0.0105058,0.0103863,0.0102443,0.0100801,0.00989394,0.0096859,0.00945616,0.00920485,0.00893213,0.00863816,0.00832313,0.00798723,0.00763073,0.00725392,0.00685712,0.00644075,0.00600526,0.0055512,0.00507915,0.00458983,0.004084,0.00356252,0.00302635,0.00247654,0.00191424,0.00134067,0.000757187,0.000165212,-0.00043373,-0.00103802,-0.00164597,-0.00225578,-0.00286561,-0.00347351,-0.0040775,-0.00467552,-0.00526548,-0.00584524,-0.00641265,-0.00696552,-0.00750167,-0.00801893,-0.00851513,-0.00898815,-0.0094359,-0.00985638,-0.0102476,-0.0106077,-0.010935,-0.0112278,-0.0114845,-0.0117037,-0.0118843,-0.0120252,-0.0121253,-0.0121841,-0.012201,-0.0121757,-0.0121081,-0.0119982,-0.0118464,-0.0116533,-0.0114197,-0.0111465,-0.0108352,-0.0104871,-0.010104,-0.00968798,-0.00924128,-0.00876639,-0.00826609,-0.00774339,-0.00720157,-0.00664418,-0.00607504,-0.00549824,-0.00491819,-0.0043396,-0.00376751,-0.00320729,-0.0026647,-0.00214591,-0.00165752,-0.00120659,-0.000800726,-0.000448093,-0.000157502,6.15192e-05,0.000198624,0.000242528,0.000180861,-0
-0,0.000306538,0.000709744,0.00118956,0.00172826,0.00231029,0.00292212,0.00355205,0.00419006,0.00482761,0.00545754,0.00607387,0.00667168,0.00724697,0.00779659,0.00831804,0.00880946,0.0092695,0.00969723,0.0100921,0.0104539,0.0107825,0.0110782,0.0113412,0.0115721,0.0117713,0.0119394,0.012077,0.0121846,0.012263,0.0123126,0.012334,0.0123278,0.0122943,0.0122339,0.0121472,0.0120343,0.0118956,0.0117314,0.0115418,0.011327,0.0110874,0.0108229,0.0105338,0.0102204,0.00988266,0.00952094,0.00913546,0.00872653,0.00829447,0.0078397,0.00736269,0.00686396,0.00634414,0.00580394,0.00524415,0.00466566,0.00406946,0.00345664,0.00282841,0.00218606,0.00153102,0.000864798,0.000189024,-0.000494573,-0.00118416,-0.00187781,-0.00257351,-0.00326915,-0.00396254,-0.00465143,-0.00533351,-0.0060064,-0.0066677,-0.00731495,-0.00794571,-0.0085575,-0.00914787,-0.00971437,-0.0102546,-0.0107662,-0.011247,-0.0116946,-0.012107,-0.0124822,-0.0128183,-0.0131137,-0.0133666,-0.0135757,-0.0137398,-0.0138579,-0.0139291,-0.0139528,-0.0139287,-0.0138567,-0.0137367,-0.0135692,-0.0133549,-0.0130946,-0.0127894,-0.0124408,-0.0120505,-0.0116205,-0.011153,-0.0106505,-0.010116,-0.00955248,-0.00896334,-0.00835228,-0.00772327,-0.00708061,-0.00642888,-0.00577298,-0.00511816,-0.00447001,-0.00383449,-0.00321793,-0.0026271,-0.0020692,-0.00155193,-0.00108349,-0.000672671,-0.000328897,-6.22919e-05,0.000116228,0.000194854,0.000160765,-0
-0,0.00040433,0.000903133,0.00147653,0.00210685,0.00277849,0.00347782,0.00419298,0.00491376,0.00563144,0.00633865,0.00702922,0.00769806,0.00834102,0.00895478,0.00953675,0.010085,0.010598,0.0110749,0.011515,0.0119182,0.0122843,0.0126135,0.0129063,0.013163,0.0133843,0.0135706,0.0137228,0.0138413,0.0139269,0.0139802,0.0140017,0.0139919,0.0139515,0.0138808,0.0137803,0.0136503,0.0134911,0.0133031,0.0130864,0.0128413,0.0125681,0.0122668,0.0119378,0.0115811,0.0111972,0.0107861,0.0103483,0.00988403,0.00939371,0.00887781,0.00833688,0.00777152,0.00718246,0.00657049,0.00593652,0.00528157,0.00460676,0.00391331,0.0032026,0.00247609,0.00173538,0.000982164,0.000218287,-0.000554313,-0.00133358,-0.00211735,-0.00290336,-0.00368925,-0.00447258,-0.00525082,-0.00602137,-0.00678158,-0.00752877,-0.00826018,-0.00897307,-0.00966469,-0.0103323,-0.0109731,-0.0115845,-0.0121638,-0.0127084,-0.013216,-0.0136841,-0.0141104,-0.014493,-0.0148298,-0.015119,-0.0153591,-0.0155488,-0.0156868,-0.0157722,-0.0158043,-0.0157827,-0.0157072,-0.015578,-0.0153954,-0.0151601,-0.014873,-0.0145356,-0.0141492,-0.0137159,-0.0132378,-0.0127175,-0.0121578,-0.0115617,-0.0109329,-0.010275,-0.00959212,-0.00888874,-0.00816959,-0.00743974,-0.00670462,-0.00597002,-0.00524207,-0.00452732,-0.00383269,-0.00316554,-0.00253367,-0.00194539,-0.00140951,-0.000935409,-0.000533086,-0.000213222,1.27539e-05,0.000132578,0.000133063,-0
-0,0.00051323,0.00111762,0.00179352,0.00252339,0.00329168,0.00408473,0.0048906,0.00569899,0.00650105,0.00728929,0.0080574,0.00880016,0.00951333,0.0101935,0.0108379,0.0114447,0.0120122,0.0125396,0.0130262,0.0134716,0.013876,0.0142395,0.0145625,0.0148454,0.015089,0.0152937,0.0154604,0.0155897,0.0156822,0.0157387,0.0157597,0.0157459,0.0156977,0.0156157,0.0155004,0.015352,0.015171,0.0149577,0.0147123,0.0144352,0.0141264,0.0137863,0.0134152,0.0130132,0.0125805,0.0121176,0.0116248,0.0111024,0.0105509,0.0099709,0.00936292,0.00872771,0.00806606,0.00737888,0.0066672,0.00593216,0.005175,0.00439713,0.00360006,0.00278542,0.001955,0.00111072,0.00025459,-0.000611208,-0.00148439,-0.00236255,-0.00324318,-0.00412365,-0.00500124,-0.00587316,-0.00673652,-0.00758838,-0.00842574,-0.00924557,-0.0100448,-0.0108204,-0.0115693,-0.0122885,-0.0129749,-0.0136257,-0.014238,-0.0148091,-0.0153363,-0.0158171,-0.0162493,-0.0166305,-0.0169589,-0.0172327,-0.0174503,-0.0176104,-0.0177119,-0.0177542,-0.0177366,-0.017659,-0.0175214,-0.0173244,-0.0170685,-0.016755,-0.0163851,-0.0159607,-0.0154837,-0.0149567,-0.0143824,-0.0137639,-0.0131046,-0.0124085,-0.0116796,-0.0109226,-0.0101421,-0.00934357,-0.00853247,-0.00771478,-0.00689684,-0.00608533,-0.00528739,-0.00451052,-0.00376267,-0.00305227,-0.00238819,-0.00177984,-0.00123717,-0.000770751,-0.000391763,-0.000112109,5.55493e-05,9.77158e-05,-0
-0,0.000633065,0.00135292,0.00214019,0.00297754,0.00384953,0.00474253,0.00564462,0.00654547,0.00743618,0.00830918,0.00915812,0.00997769,0.0107636,0.0115123,0.0122212,0.0128881,0.0135116,0.0140907,0.0146247,0.0151133,0.0155567,0.015955,0.0163086,0.0166181,0.0168841,0.0171073,0.0172884,0.0174282,0.0175273,0.0175865,0.0176065,0.0175879,0.0175312,0.017437,0.0173057,0.0171378,0.0169337,0.0166937,0.016418,0.0161071,0.0157611,0.0153803,0.0149649,0.0145153,0.0140318,0.0135146,0.0129642,0.0123811,0.0117657,0.0111187,0.0104407,0.00973253,0.00899512,0.00822946,0.0074367,0.00661809,0.00577504,0.0049091,0.00402193,0.00311537,0.00219139,0.00125208,0.000299706,-0.000663344,-0.00163455,-0.00261125,-0.00359068,-0.00456994,-0.00554605,-0.0065159,-0.00747633,-0.00842409,-0.00935589,-0.0102684,-0.0111582,-0.0120219,-0.0128562,-0.0136578,-0.0144233,-0.0151495,-0.0158333,-0.0164715,-0.0170614,-0.0176002,-0.0180852,-0.018514,-0.0188845,-0.0191947,-0.0194428,-0.0196273,-0.0197472,-0.0198015,-0.0197896,-0.0197113,-0.0195666,-0.0193561,-0.0190804,-0.0187407,-0.0183385,-0.0178758,-0.0173547,-0.016778,-0.0161487,-0.0154701,-0.0147461,-0.0139808,-0.0131789,-0.0123452,-0.0114851,-0.0106043,-0.00970879,-0.00880518,-0.00790031,-0.00700144,-0.00611626,-0.00525289,-0.00441987,-0.00362621,-0.00288139,-0.00219538,-0.00157871,-0.00104246,-0.000598304,-0.000258586,-3.63257e-05,5.47146e-05,-0
-0,0.000763649,0.00160872,0.00251616,0.00346887,0.00445157,0.00545076,0.0064546,0.00745278,0.00843641,0.00939794,0.010331,0.0112302,0.0120913,0.0129108,0.0136859,0.0144146,0.0150954,0.0157273,0.0163098,0.0168424,0.0173254,0.017759,0.0181436,0.0184799,0.0187684,0.01901,0.0192054,0.0193554,0.0194608,0.0195223,0.0195406,0.0195165,0.0194504,0.019343,0.0191948,0.0190063,0.0187777,0.0185096,0.0182022,0.0178559,0.0174709,0.0170475,0.016586,0.0160868,0.0155502,0.0149765,0.0143662,0.0137198,0.0130379,0.0123211,0.0115703,0.0107863,0.00997008,0.00912282,0.00824575,0.00734027,0.00640793,0.00545043,0.00446961,0.00346748,0.0024462,0.00140808,0.000355592,-0.00070864,-0.00178185,-0.00286114,-0.00394346,-0.00502564,-0.00610442,-0.0071764,-0.00823811,-0.009286,-0.0103165,-0.0113258,-0.0123104,-0.0132665,-0.0141904,-0.0150784,-0.015927,-0.0167326,-0.0174917,-0.018201,-0.0188573,-0.0194575,-0.0199988,-0.0204785,-0.0208942,-0.0212437,-0.0215251,-0.0217367,-0.0218773,-0.0219457,-0.0219414,-0.021864,-0.0217136,-0.0214906,-0.0211959,-0.0208306,-0.0203964,-0.0198954,-0.01933,-0.018703,-0.0180177,-0.0172779,-0.0164876,-0.0156515,-0.0147745,-0.0138618,-0.0129194,-0.0119535,-0.0109705,-0.00997761,-0.00898217,-0.00799204,-0.00701551,-0.00606127,-0.00513847,-0.0042567,-0.00342602,-0.002657,-0.0019607,-0.0013487,-0.000833171,-0.000426853,-0.000143107,4.0642e-06,-0
-0,0.000904789,0.00188469,0.00292099,0.00399688,0.00509729,0.0062089,0.00732,0.00842037,0.00950121,0.010555,0.0115754,0.0125571,0.0134959,0.0143883,0.0152315,0.0160235,0.016763,0.0174488,0.0180806,0.018658,0.0191812,0.0196505,0.0200664,0.0204295,0.0207407,0.0210006,0.0212101,0.0213701,0.0214813,0.0215446,0.0215607,0.0215303,0.0214541,0.0213326,0.0211665,0.0209561,0.020702,0.0204044,0.0200639,0.0196806,0.019255,0.0187873,0.0182779,0.017727,0.0171352,0.0165028,0.0158303,0.0151183,0.0143674,0.0135784,0.0127521,0.0118894,0.0109916,0.0100598,0.00909533,0.00809984,0.00707497,0.00602258,0.00494468,0.00384348,0.00272131,0.00158072,0.000424379,-0.000744844,-0.00192394,-0.00310975,-0.00429896,-0.00548812,-0.00667367,-0.00785192,-0.00901909,-0.0101713,-0.0113047,-0.0124151,-0.0134987,-0.0145513,-0.015569,-0.0165477,-0.0174836,-0.0183726,-0.019211,-0.0199953,-0.0207218,-0.0213872,-0.0219884,-0.0225225,-0.0229867,-0.0233787,-0.0236963,-0.0239377,-0.0241015,-0.0241864,-0.0241917,-0.0241171,-0.0239626,-0.0237285,-0.0234158,-0.0230257,-0.02256,-0.0220208,-0.0214108,-0.020733,-0.0199911,-0.019189,-0.0183311,-0.0174224,-0.0164682,-0.0154744,-0.0144472,-0.0133932,-0.0123196,-0.0112339,-0.0101442,-0.00905886,-0.00798673,-0.00693712,-0.00591978,-0.00494488,-0.00402309,-0.00316551,-0.00238376,-0.00168994,-0.00109666,-0.000617064,-0.000264841,-5.42258e-05,-0
-0,0.00105629,0.00218048,0.00335423,0.00456103,0.00578609,0.00701632,0.00824017,0.0094476,0.0106299,0.0117797,0.0128908,0.0139578,0.0149767,0.015944,0.0168572,0.0177141,0.0185134,0.0192543,0.0199362,0.0205591,0.021123,0.0216284,0.0220758,0.022466,0.0227997,0.0230779,0.0233013,0.0234709,0.0235876,0.0236521,0.0236654,0.0236281,0.0235409,0.0234045,0.0232194,0.0229862,0.0227053,0.0223771,0.022002,0.0215804,0.0211126,0.020599,0.0200398,0.0194356,0.0187867,0.0180936,0.0173568,0.0165769,0.0157547,0.014891,0.0139866,0.0130427,0.0120605,0.0110413,0.00998664,0.00889812,0.00777763,0.00662717,0.00544893,0.00424528,0.00301879,0.00177218,0.00050837,-0.000769546,-0.00205831,-0.00335449,-0.00465451,-0.00595464,-0.00725101,-0.00853964,-0.00981642,-0.0110772,-0.0123176,-0.0135335,-0.0147203,-0.0158738,-0.0169895,-0.0180632,-0.0190904,-0.0200671,-0.0209891,-0.0218523,-0.022653,-0.0233875,-0.0240524,-0.0246445,-0.0251607,-0.0255985,-0.0259556,-0.0262298,-0.0264195,-0.0265234,-0.0265408,-0.026471,-0.0263141,-0.0260704,-0.0257409,-0.0253269,-0.0248303,-0.0242533,-0.0235987,-0.0228699,-0.0220706,-0.0212052,-0.0202784,-0.0192956,-0.0182623,-0.017185,-0.0160703,-0.0149254,-0.013758,-0.0125761,-0.0113883,-0.0102037,-0.00903158,-0.00788196,-0.00676515,-0.00569195,-0.00467358,-0.00372173,-0.00284854,-0.00206663,-0.00138906,-0.000829372,-0.000401578,-0.00012015,-0