-0,-0.000928763,-0.00352903,-0.00673163,-0.00968129,-0.0118233,-0.0128245,-0.0124977,-0.0107497,-0.00754909,-0.00290488,0.00314671,0.0105514,0.0192429,0.0291478,0.0401881,0.0522837,0.0653541,0.0793195,0.094102,0.109626,0.125817,0.142606,0.159925,0.177709,0.195898,0.214432,0.233257,0.252318,0.271566,0.290951,0.310427,0.329948,0.349472,0.368956,0.388359,0.407639,0.426758,0.445677,0.464355,0.482754,0.500835,0.518559,0.535888,0.552781,0.5692,0.585105,0.600455,0.615212,0.629335,0.642784,0.655519,0.667501,0.678691,0.689049,0.698538,0.707121,0.714762,0.721427,0.727084,0.7317,0.735247,0.737699,0.739032,0.739224,0.738258,0.736119,0.732795,0.728281,0.722571,0.715668,0.707576,0.698305,0.68787,0.676291,0.663591,0.649801,0.634954,0.619089,0.602252,0.584491,0.565861,0.54642,0.526231,0.505363,0.483887,0.461879,0.439417,0.416584,0.393465,0.370147,0.346721,0.323276,0.299904,0.2767,0.253755,0.231162,0.209012,0.187396,0.166401,0.146115,0.126619,0.107993,0.0903134,0.0736506,0.058071,0.0436354,0.0303986,0.018409,0.00770755,-0.00167214,-0.00970516,-0.0163759,-0.0216793,-0.0256216,-0.0282229,-0.0295184,-0.0295617,-0.0284286,-0.0262223,-0.023081,-0.019188,-0.014787,-0.0102025,-0.00586599,-0.00233511,-0.000250305,-0
-0.000928763,-0.00167312,-0.00241627,-0.00325875,-0.00389411,-0.00398848,-0.00327911,-0.00158426,0.00120986,0.00516499,0.0103043,0.0166229,0.0240956,0.0326825,0.0423336,0.052992,0.0645962,0.0770822,0.0903845,0.104438,0.119176,0.134537,0.150457,0.166877,0.183736,0.20098,0.218554,0.236406,0.254484,0.272741,0.29113,0.309606,0.328125,0.346644,0.365123,0.38352,0.401796,0.419912,0.437828,0.455508,0.472913,0.490005,0.506746,0.523098,0.539025,0.554488,0.56945,0.583872,0.597718,0.61095,0.62353,0.635423,0.646591,0.656998,0.66661,0.675391,0.68331,0.690333,0.69643,0.701572,0.705733,0.708886,0.711009,0.712081,0.712085,0.711007,0.708834,0.705558,0.701173,0.69568,0.689081,0.681381,0.672592,0.662729,0.651812,0.639863,0.626911,0.612989,0.598133,0.582385,0.565792,0.548402,0.53027,0.511455,0.492018,0.472024,0.451544,0.430647,0.409409,0.387908,0.366221,0.34443,0.322617,0.300865,0.279257,0.257877,0.236808,0.216132,0.195929,0.17628,0.157261,0.138945,0.121405,0.104706,0.0889123,0.074082,0.0602682,0.0475184,0.035874,0.0253692,0.0160311,0.00787811,0.000919908,-0.00484422,-0.00942628,-0.0128512,-0.0151587,-0.0164055,-0.0166686,-0.0160486,-0.0146743,-0.012708,-0.0103498,-0.0078393,-0.00544422,-0.00341314,-0.00183213,-0.000250305
-0.0035323,-0.0024189,-0.00120458,6.38994e-06,0.00135127,0.00304162,0.0052798,0.00822889,0.0120075,0.0166941,0.0223336,0.0289447,0.0365252,0.0450574,0.0545116,0.0648495,0.0760263,0.0879929,0.100697,0.114085,0.128103,0.142694,0.157806,0.173383,0.189374,0.205727,0.222391,0.239319,0.256462,0.273775,0.291212,0.308731,0.326289,0.343845,0.361358,0.378789,0.396099,0.41325,0.430205,0.446924,0.463373,0.479514,0.49531,0.510725,0.525724,0.54027,0.554328,0.567862,0.580836,0.593217,0.604969,0.616058,0.626451,0.636114,0.645018,0.653129,0.660419,0.666858,0.672421,0.677081,0.680815,0.683601,0.68542,0.686255,0.686091,0.684916,0.682722,0.679502,0.675254,0.669979,0.66368,0.656365,0.648047,0.638739,0.628462,0.617237,0.605093,0.592059,0.578171,0.563467,0.54799,0.531786,0.514904,0.497398,0.479323,0.460741,0.441712,0.422302,0.402579,0.382611,0.36247,0.342228,0.321959,0.301737,0.281637,0.261733,0.242101,0.222812,0.20394,0.185555,0.167724,0.150514,0.133987,0.118203,0.103217,0.0890799,0.0758381,0.0635322,0.052197,0.0418608,0.0325447,0.0242618,0.0170166,0.0108036,0.00560698,0.00139842,-0.00186383,-0.00423682,-0.0057949,-0.00663167,-0.00686172,-0.00662131,-0.006066,-0.00536143,-0.00465899,-0.00404144,-0.00341493,-0.00233038
-0.00675008,-0.00326594,1.01077e-05,0.00313727,0.00625085,0.00952368,0.0131278,0.0172128,0.0218978,0.027271,0.0333923,0.0402979,0.0480039,0.0565106,0.0658057,0.0758669,0.0866642,0.098162,0.11032,0.123096,0.136445,0.150319,0.164673,0.179459,0.194629,0.210138,0.225939,0.241987,0.258238,0.274647,0.291174,0.307775,0.324411,0.341041,0.357626,0.374128,0.390509,0.406731,0.422759,0.438554,0.454083,0.469309,0.484197,0.498712,0.51282,0.526487,0.539679,0.552361,0.564503,0.57607,0.587031,0.597355,0.607011,0.615969,0.6242,0.631677,0.638374,0.644265,0.649326,0.653536,0.656873,0.659321,0.660861,0.661482,0.66117,0.659917,0.657717,0.654565,0.650461,0.645407,0.639409,0.632476,0.624618,0.615853,0.606198,0.595676,0.584312,0.572135,0.559179,0.545477,0.531071,0.516002,0.500315,0.484059,0.467286,0.450048,0.432402,0.414406,0.396121,0.377609,0.358934,0.34016,0.321352,0.302578,0.283903,0.265394,0.247117,0.229136,0.211516,0.194318,0.177604,0.16143,0.145852,0.130921,0.116687,0.103193,0.0904787,0.0785787,0.0675221,0.0573314,0.0480227,0.0396045,0.0320769,0.025431,0.019648,0.0146978,0.0105383,0.00711403,0.00435508,0.00217662,0.000478915,-0.000850702,-0.00193241,-0.00288221,-0.00378956,-0.00467924,-0.00545615,-0.00585066
-0.00973274,-0.00390539,0.00137338,0.00628163,0.0109913,0.015675,0.0204958,0.0255979,0.0311016,0.0371017,0.043669,0.0508527,0.0586834,0.0671763,0.0763333,0.086146,0.0965975,0.107664,0.119316,0.131522,0.144244,0.157445,0.171084,0.18512,0.199512,0.214218,0.229195,0.244403,0.2598,0.275344,0.290996,0.306716,0.322465,0.338204,0.353895,0.369502,0.384988,0.400315,0.415449,0.430355,0.444998,0.459343,0.473358,0.487008,0.50026,0.513083,0.525444,0.537313,0.548657,0.559448,0.569655,0.57925,0.588206,0.596495,0.604091,0.61097,0.617108,0.622484,0.627077,0.630867,0.633839,0.635976,0.637265,0.637696,0.637258,0.635946,0.633755,0.630684,0.626734,0.621908,0.616213,0.609659,0.602258,0.594025,0.584978,0.575139,0.564533,0.553185,0.541128,0.528393,0.515016,0.501037,0.486496,0.471437,0.455906,0.439952,0.423624,0.406975,0.39006,0.372932,0.355648,0.338267,0.320845,0.303442,0.286116,0.268925,0.251927,0.23518,0.21874,0.20266,0.186995,0.171793,0.157104,0.142972,0.129439,0.116543,0.104316,0.0927895,0.0819852,0.0719215,0.0626098,0.0540545,0.0462526,0.0391923,0.0328528,0.0272033,0.0222024,0.0177971,0.0139226,0.0105026,0.00745024,0.004671,0.00206838,-0.000446307,-0.00293864,-0.00543062,-0.00788049,-0.0101804
-0.0119243,-0.00399695,0.00310687,0.00962465,0.0157585,0.0216903,0.0275841,0.0335838,0.0398119,0.0463685,0.0533325,0.0607634,0.0687032,0.0771789,0.0862047,0.0957837,0.10591,0.116571,0.127747,0.139414,0.151543,0.164104,0.177064,0.190386,0.204035,0.217973,0.232162,0.246564,0.26114,0.275853,0.290664,0.305535,0.320429,0.335309,0.350138,0.364881,0.379503,0.393967,0.40824,0.422288,0.436077,0.449574,0.462747,0.475565,0.487996,0.500009,0.511574,0.522663,0.533245,0.543295,0.552784,0.561686,0.569977,0.577632,0.584628,0.590943,0.596558,0.601452,0.605609,0.609012,0.611648,0.613503,0.614567,0.614832,0.614291,0.61294,0.610776,0.6078,0.604015,0.599425,0.594037,0.587863,0.580915,0.573207,0.564757,0.555587,0.545718,0.535176,0.523989,0.512187,0.499804,0.486873,0.473433,0.459522,0.445182,0.430456,0.415388,0.400025,0.384414,0.368604,0.352645,0.336586,0.32048,0.304377,0.288328,0.272385,0.256598,0.241016,0.225689,0.210664,0.195986,0.181699,0.167844,0.15446,0.141583,0.129244,0.117471,0.106289,0.0957149,0.0857634,0.0764417,0.0677509,0.059685,0.0522304,0.045365,0.0390579,0.0332687,0.0279474,0.0230341,0.0184598,0.0141475,0.0100152,0.00598039,0.00196631,-0.00208913,-0.00622528,-0.0104559,-0.0147828
-0.0129815,-0.0032659,0.00542608,0.0133519,0.0207286,0.0277453,0.0345688,0.0413445,0.0481974,0.0552319,0.0625333,0.070169,0.0781901,0.0866332,0.0955223,0.104871,0.114682,0.124952,0.135671,0.146821,0.158383,0.170332,0.18264,0.195277,0.208212,0.221413,0.234843,0.248469,0.262255,0.276165,0.290164,0.304215,0.318284,0.332334,0.34633,0.360239,0.374025,0.387656,0.401097,0.414317,0.427282,0.439962,0.452325,0.464342,0.475983,0.487218,0.498021,0.508362,0.518217,0.527559,0.536364,0.544608,0.552269,0.559324,0.565754,0.57154,0.576664,0.58111,0.584863,0.58791,0.590239,0.591841,0.592707,0.592831,0.59221,0.59084,0.588721,0.585856,0.582247,0.577902,0.572829,0.567037,0.56054,0.553353,0.545491,0.536976,0.527828,0.518071,0.50773,0.496833,0.485409,0.473491,0.461111,0.448304,0.435108,0.421559,0.407697,0.393563,0.379199,0.364646,0.349949,0.33515,0.320295,0.305427,0.290591,0.27583,0.26119,0.246711,0.232436,0.218407,0.20466,0.191235,0.178166,0.165485,0.153223,0.141406,0.130056,0.119194,0.108832,0.0989816,0.0896459,0.0808235,0.072506,0.0646782,0.0573173,0.0503928,0.0438656,0.0376885,0.0318058,0.0261542,0.0206641,0.0152615,0.00987088,0.00441931,-0.0011602,-0.00692695,-0.0129367,-0.0192566
-0.0126976,-0.00151238,0.00851112,0.0176287,0.0260598,0.0339957,0.0416042,0.049032,0.0564057,0.0638334,0.071405,0.079194,0.0872586,0.0956433,0.10438,0.113491,0.122987,0.132872,0.143144,0.153793,0.164804,0.17616,0.187838,0.199814,0.21206,0.224546,0.237243,0.250119,0.26314,0.276274,0.289487,0.302745,0.316014,0.32926,0.342451,0.355552,0.36853,0.381354,0.393991,0.40641,0.41858,0.430472,0.442054,0.4533,0.464181,0.47467,0.48474,0.494367,0.503526,0.512194,0.520347,0.527966,0.535029,0.541519,0.547416,0.552706,0.557372,0.561401,0.564782,0.567503,0.569555,0.570931,0.571626,0.571635,0.570955,0.569588,0.567533,0.564794,0.561377,0.557287,0.552534,0.547129,0.541085,0.534415,0.527135,0.519265,0.510824,0.501834,0.492317,0.4823,0.471807,0.460868,0.449513,0.437771,0.425674,0.413257,0.400553,0.387597,0.374425,0.361075,0.347582,0.333985,0.320322,0.30663,0.292947,0.279311,0.265759,0.252327,0.23905,0.225962,0.213098,0.200487,0.188159,0.176141,0.164458,0.153131,0.142178,0.131615,0.121451,0.111693,0.102342,0.0933939,0.0848384,0.076659,0.0688329,0.0613296,0.0541119,0.0471347,0.040346,0.0336871,0.0270932,0.0204954,0.0138218,0.00699927,-4.54393e-05,-0.00738749,-0.0151095,-0.0233135
-0.0109519,0.00140161,0.0125018,0.0225925,0.0318877,0.0405762,0.0488242,0.0567781,0.0645657,0.0722969,0.0800653,0.0879489,0.0960115,0.104304,0.112864,0.121722,0.130894,0.140393,0.150221,0.160375,0.170846,0.181623,0.192687,0.204018,0.215592,0.227386,0.23937,0.251517,0.263796,0.276176,0.288625,0.301113,0.313606,0.326073,0.338481,0.350799,0.362994,0.375037,0.386895,0.39854,0.409941,0.421071,0.431901,0.442404,0.452554,0.462325,0.471694,0.480636,0.48913,0.497154,0.504688,0.511713,0.518211,0.524167,0.529564,0.534389,0.538629,0.542273,0.545311,0.547736,0.54954,0.550719,0.551268,0.551186,0.550472,0.549128,0.547156,0.54456,0.541347,0.537525,0.533101,0.528089,0.522498,0.516345,0.509643,0.502411,0.494665,0.486426,0.477716,0.468555,0.458969,0.448981,0.438617,0.427904,0.416869,0.405542,0.393952,0.382128,0.370101,0.357903,0.345564,0.333116,0.320592,0.308022,0.295439,0.282874,0.270358,0.25792,0.245591,0.233399,0.22137,0.209531,0.197905,0.186515,0.175379,0.164515,0.153937,0.143656,0.133679,0.124008,0.114642,0.105576,0.096797,0.0882881,0.0800261,0.0719814,0.0641179,0.0563929,0.0487571,0.0411553,0.0335267,0.0258053,0.0179212,0.00980061,0.00136516,-0.00747022,-0.0168027,-0.0267504
-0.00767754,0.00556765,0.0175018,0.0283527,0.0383246,0.0476003,0.0563427,0.0646964,0.0727885,0.0807304,0.0886176,0.0965316,0.10454,0.112699,0.121052,0.129634,0.138467,0.14757,0.15695,0.16661,0.176546,0.186751,0.19721,0.207909,0.218827,0.229943,0.241231,0.252666,0.264221,0.275867,0.287573,0.299311,0.311049,0.322758,0.334405,0.345962,0.357397,0.368681,0.379785,0.39068,0.401338,0.411731,0.421834,0.431621,0.441066,0.450148,0.458843,0.46713,0.474988,0.482398,0.489343,0.495805,0.501769,0.507222,0.512149,0.51654,0.520384,0.523673,0.5264,0.528557,0.530141,0.531149,0.531579,0.531431,0.530705,0.529405,0.527535,0.525099,0.522106,0.518562,0.514477,0.509863,0.504731,0.499095,0.492968,0.486367,0.479308,0.471809,0.463888,0.455566,0.446863,0.4378,0.428399,0.418684,0.408678,0.398404,0.387888,0.377155,0.36623,0.355139,0.343908,0.332563,0.321129,0.309634,0.298103,0.286561,0.275034,0.263545,0.25212,0.24078,0.229547,0.218443,0.207485,0.19669,0.186075,0.175651,0.165429,0.155416,0.145616,0.136029,0.126652,0.117476,0.108489,0.0996729,0.091004,0.0824537,0.0739869,0.0655632,0.0571356,0.0486519,0.0400541,0.0312787,0.0222574,0.0129162,0.00317424,-0.00705812,-0.0178839,-0.0294252
-0.00284246,0.0110437,0.0235853,0.0349933,0.0454607,0.0551622,0.0642559,0.0728831,0.0811698,0.0892271,0.097152,0.105028,0.112926,0.120905,0.129014,0.13729,0.145764,0.154455,0.163378,0.172539,0.181939,0.191574,0.201434,0.211508,0.22178,0.232229,0.242834,0.253573,0.264419,0.275346,0.286326,0.297332,0.308333,0.319302,0.330209,0.341025,0.351721,0.362268,0.372639,0.382806,0.392743,0.402424,0.411825,0.42092,0.429688,0.438106,0.446154,0.453813,0.461063,0.467888,0.474272,0.480201,0.485661,0.490639,0.495127,0.499114,0.502592,0.505555,0.507997,0.509916,0.511307,0.512171,0.512506,0.512315,0.5116,0.510365,0.508616,0.506357,0.503597,0.500345,0.496609,0.492401,0.487732,0.482614,0.477062,0.471088,0.464709,0.457939,0.450796,0.443296,0.435457,0.427297,0.418835,0.41009,0.401082,0.39183,0.382354,0.372675,0.362813,0.35279,0.342625,0.33234,0.321956,0.311492,0.30097,0.290409,0.27983,0.26925,0.258689,0.248164,0.237693,0.227289,0.216969,0.206744,0.196626,0.186623,0.176741,0.166986,0.157358,0.147854,0.13847,0.129195,0.120016,0.110914,0.101867,0.0928449,0.0838156,0.0747398,0.0655729,0.0562651,0.0467609,0.0369996,0.0269143,0.0164321,0.00547245,-0.006055,-0.018253,-0.0312407
0.00356332,0.0178636,0.0308032,0.0425773,0.0533667,0.0633379,0.0726429,0.0814193,0.0897907,0.0978673,0.105746,0.113513,0.121239,0.128988,0.136811,0.144749,0.152836,0.161096,0.169546,0.178198,0.187056,0.196119,0.205382,0.214835,0.224465,0.234256,0.244188,0.25424,0.26439,0.274612,0.28488,0.295169,0.30545,0.315697,0.32588,0.335973,0.345948,0.355778,0.365437,0.374898,0.384136,0.393126,0.401847,0.410275,0.418389,0.426168,0.433595,0.440651,0.44732,0.453587,0.459438,0.464861,0.469844,0.474377,0.478453,0.482064,0.485204,0.487869,0.490056,0.491762,0.492987,0.493731,0.493997,0.493787,0.493104,0.491955,0.490344,0.488279,0.485769,0.48282,0.479444,0.47565,0.471449,0.466853,0.461875,0.456527,0.450822,0.444774,0.438397,0.431706,0.424715,0.41744,0.409895,0.402097,0.39406,0.385801,0.377335,0.368679,0.359847,0.350857,0.341723,0.332462,0.323089,0.31362,0.304069,0.294452,0.284784,0.275078,0.265348,0.255606,0.245865,0.236135,0.226427,0.21675,0.207109,0.197511,0.187958,0.178453,0.168993,0.159574,0.150188,0.140825,0.131471,0.122106,0.112707,0.103248,0.0936946,0.084011,0.0741546,0.0640778,0.0537279,0.0430465,0.0319694,0.0204258,0.00833732,-0.00438374,-0.0178361,-0.032132
0.0115353,0.0260442,0.0391889,0.0511499,0.0620969,0.0721879,0.0815685,0.090372,0.0987192,0.106719,0.114468,0.122051,0.129543,0.137008,0.144499,0.152061,0.15973,0.167534,0.175493,0.183622,0.191928,0.200413,0.209075,0.217908,0.226899,0.236036,0.245301,0.254675,0.264138,0.273665,0.283234,0.292819,0.302393,0.311932,0.321408,0.330794,0.340066,0.349196,0.358161,0.366934,0.375493,0.383814,0.391876,0.399658,0.407141,0.414305,0.421134,0.427613,0.433726,0.43946,0.444804,0.449747,0.45428,0.458395,0.462086,0.465348,0.468177,0.470571,0.472527,0.474047,0.475131,0.475781,0.476,0.475793,0.475164,0.474119,0.472666,0.470812,0.468565,0.465933,0.462927,0.459556,0.45583,0.45176,0.447358,0.442634,0.4376,0.432268,0.426649,0.420756,0.4146,0.408193,0.401548,0.394676,0.387589,0.380299,0.372817,0.365156,0.357325,0.349338,0.341204,0.332935,0.324542,0.316035,0.307424,0.29872,0.289932,0.281069,0.27214,0.263154,0.254118,0.245039,0.235923,0.226774,0.217595,0.20839,0.199158,0.189897,0.180604,0.171273,0.161894,0.152456,0.142943,0.133336,0.123614,0.113748,0.103709,0.0934597,0.0829612,0.0721681,0.0610302,0.0494923,0.0374931,0.0249652,0.011834,-0.00198352,-0.0165796,-0.0320574
0.0210598,0.0355903,0.0487619,0.0607426,0.0716917,0.0817592,0.0910845,0.0997962,0.108012,0.115839,0.123372,0.130698,0.13789,0.145014,0.152125,0.15927,0.166488,0.173808,0.181254,0.188841,0.196582,0.20448,0.212535,0.220743,0.229095,0.237579,0.246181,0.254883,0.263665,0.272507,0.281385,0.290277,0.299156,0.308,0.316781,0.325476,0.33406,0.342507,0.350794,0.358897,0.366795,0.374466,0.381889,0.389046,0.395918,0.402489,0.408743,0.414667,0.420247,0.425473,0.430334,0.434822,0.43893,0.442652,0.445984,0.448923,0.451466,0.453614,0.455366,0.456723,0.45769,0.458268,0.458463,0.45828,0.457725,0.456805,0.455527,0.4539,0.45193,0.449629,0.447003,0.444064,0.44082,0.437281,0.433457,0.429358,0.424993,0.420373,0.415506,0.410402,0.405071,0.39952,0.39376,0.387798,0.381642,0.3753,0.368781,0.362091,0.355238,0.348228,0.341068,0.333765,0.326324,0.318752,0.311054,0.303236,0.295302,0.287258,0.279108,0.270855,0.262503,0.254055,0.245514,0.236879,0.228151,0.21933,0.210412,0.201394,0.19227,0.183032,0.173668,0.164168,0.154514,0.144688,0.134668,0.124428,0.113937,0.103163,0.0920677,0.0806081,0.0687373,0.0564031,0.0435482,0.0301092,0.0160164,0.00119304,-0.0144455,-0.0309922
0.0321171,0.0464979,0.0595318,0.0713757,0.0821801,0.0920875,0.101231,0.109736,0.117716,0.125275,0.132508,0.1395,0.146326,0.153051,0.159732,0.166417,0.173146,0.179951,0.186857,0.193884,0.201042,0.20834,0.215779,0.223356,0.231065,0.238896,0.246836,0.254868,0.262975,0.271137,0.279332,0.287539,0.295734,0.303893,0.311992,0.320008,0.327917,0.335695,0.34332,0.35077,0.358024,0.365062,0.371865,0.378415,0.384696,0.390694,0.396394,0.401784,0.406854,0.411593,0.415994,0.420051,0.423758,0.427111,0.430108,0.432747,0.435029,0.436953,0.438524,0.439743,0.440614,0.441143,0.441336,0.441197,0.440736,0.439958,0.438872,0.437487,0.43581,0.43385,0.431616,0.429118,0.426363,0.42336,0.420119,0.416646,0.412951,0.40904,0.40492,0.4006,0.396085,0.39138,0.386493,0.381427,0.376187,0.370778,0.365204,0.359467,0.353571,0.347518,0.341311,0.334952,0.328442,0.321783,0.314976,0.308022,0.300922,0.293676,0.286285,0.278748,0.271064,0.263233,0.255254,0.247123,0.238839,0.230396,0.22179,0.213016,0.204064,0.194925,0.185588,0.176039,0.166263,0.156239,0.145947,0.135362,0.124455,0.113194,0.101544,0.0894651,0.0769129,0.0638393,0.0501907,0.0359087,0.0209294,0.00518266,-0.0114075,-0.0289236
0.0446837,0.0587572,0.0715003,0.083061,0.093582,0.103199,0.112041,0.120226,0.127868,0.135066,0.141915,0.148499,0.154891,0.161157,0.167356,0.173535,0.179737,0.185993,0.192332,0.198773,0.205331,0.212013,0.218824,0.225762,0.232823,0.239997,0.247273,0.254636,0.26207,0.269556,0.277075,0.284604,0.292121,0.299605,0.307033,0.314381,0.321627,0.328749,0.335725,0.342536,0.349161,0.355582,0.361781,0.367742,0.373451,0.378894,0.384059,0.388936,0.393515,0.397789,0.401752,0.405399,0.408726,0.411732,0.414416,0.416778,0.41882,0.420545,0.421956,0.423057,0.423855,0.424355,0.424565,0.42449,0.42414,0.423522,0.422644,0.421516,0.420145,0.418539,0.416709,0.41466,0.412402,0.409942,0.407287,0.404443,0.401418,0.398215,0.394841,0.3913,0.387595,0.38373,0.379706,0.375527,0.371192,0.366703,0.362059,0.357261,0.352307,0.347195,0.341924,0.336492,0.330895,0.325133,0.3192,0.313094,0.306812,0.300349,0.293703,0.286869,0.279842,0.272618,0.265192,0.25756,0.249714,0.241648,0.233355,0.224826,0.216053,0.207023,0.197724,0.188142,0.178261,0.168062,0.157524,0.146622,0.135331,0.12362,0.111456,0.098801,0.0856158,0.0718552,0.0574703,0.0424078,0.0266099,0.0100137,-0.00744796,-0.0258473
0.058734,0.0723538,0.0846633,0.0958032,0.105909,0.115112,0.123535,0.131294,0.138497,0.145244,0.151626,0.157725,0.163617,0.169365,0.175028,0.180655,0.186288,0.191961,0.197702,0.203533,0.209468,0.215517,0.221686,0.227974,0.234378,0.240889,0.247498,0.254192,0.260953,0.267766,0.274611,0.281467,0.288314,0.295131,0.301895,0.308584,0.315178,0.321655,0.327996,0.33418,0.34019,0.346008,0.351619,0.357007,0.36216,0.367065,0.371713,0.376095,0.380202,0.38403,0.387574,0.390831,0.393799,0.396479,0.39887,0.400976,0.402799,0.404344,0.405615,0.406619,0.407363,0.407853,0.408098,0.408105,0.407883,0.407441,0.406787,0.405929,0.404877,0.403638,0.40222,0.400631,0.398877,0.396966,0.394902,0.392691,0.390338,0.387845,0.385215,0.382451,0.379553,0.376522,0.373357,0.370057,0.366619,0.36304,0.359318,0.355447,0.351424,0.347241,0.342895,0.338377,0.333682,0.328803,0.323733,0.318464,0.312989,0.3073,0.301389,0.295249,0.288872,0.282249,0.275374,0.268236,0.260828,0.253141,0.245164,0.236888,0.2283,0.21939,0.210143,0.200544,0.190578,0.180225,0.169465,0.158275,0.146631,0.134504,0.121862,0.108674,0.0948998,0.0805005,0.0654314,0.0496448,0.0330889,0.0157085,-0.00255516,-0.0217641
0.0742411,0.0872706,0.0990125,0.109602,0.119169,0.127839,0.135732,0.14296,0.149628,0.155834,0.161667,0.167208,0.172531,0.1777,0.182774,0.1878,0.192823,0.197876,0.202987,0.20818,0.21347,0.218867,0.224378,0.230003,0.23574,0.241582,0.247519,0.253539,0.259628,0.265767,0.271941,0.278128,0.284309,0.290464,0.296571,0.30261,0.308561,0.314403,0.320118,0.325688,0.331095,0.336323,0.341359,0.346189,0.3508,0.355184,0.35933,0.363233,0.366886,0.370285,0.373428,0.376313,0.378941,0.381312,0.38343,0.385298,0.386921,0.388304,0.389455,0.39038,0.391087,0.391585,0.391882,0.391987,0.391909,0.391657,0.39124,0.390667,0.389945,0.389084,0.388089,0.386968,0.385727,0.384371,0.382904,0.38133,0.379652,0.37787,0.375986,0.373998,0.371906,0.369707,0.367397,0.364972,0.362426,0.359753,0.356946,0.353996,0.350896,0.347636,0.344206,0.340596,0.336795,0.332793,0.328578,0.324139,0.319465,0.314543,0.309364,0.303915,0.298185,0.292163,0.285838,0.279197,0.27223,0.264926,0.257272,0.249256,0.240866,0.232088,0.222907,0.213309,0.203276,0.192791,0.181834,0.170383,0.158415,0.145904,0.132821,0.119136,0.104814,0.0898203,0.074114,0.0576533,0.0403928,0.0222847,0.00327846,-0.0166782
0.0911773,0.103488,0.114536,0.124452,0.133361,0.141386,0.148641,0.155238,0.161277,0.166855,0.172058,0.176968,0.181656,0.186186,0.190616,0.194994,0.199363,0.203757,0.208207,0.212733,0.217352,0.222077,0.226912,0.23186,0.236919,0.242082,0.24734,0.252683,0.258095,0.26356,0.269063,0.274583,0.280101,0.285599,0.291055,0.29645,0.301765,0.306981,0.31208,0.317045,0.32186,0.32651,0.330983,0.335266,0.33935,0.343225,0.346885,0.350324,0.353538,0.356524,0.359282,0.361811,0.364115,0.366195,0.368055,0.369703,0.371142,0.372381,0.373428,0.37429,0.374977,0.375498,0.375862,0.37608,0.37616,0.376112,0.375945,0.375667,0.375288,0.374814,0.374251,0.373607,0.372886,0.372092,0.371228,0.370296,0.369297,0.368229,0.367093,0.365883,0.364598,0.363231,0.361775,0.360224,0.358568,0.356798,0.354904,0.352873,0.350693,0.348352,0.345836,0.34313,0.340221,0.337093,0.333731,0.330121,0.326247,0.322093,0.317646,0.312889,0.307809,0.30239,0.296619,0.290481,0.283962,0.277049,0.269728,0.261984,0.253803,0.245172,0.236074,0.226494,0.216415,0.205821,0.194691,0.183005,0.170742,0.157877,0.144385,0.130238,0.115406,0.0998561,0.0835543,0.0664635,0.0485447,0.029757,0.010058,-0.0105956
0.109515,0.120986,0.13122,0.140345,0.148484,0.155754,0.16227,0.168137,0.173456,0.178321,0.182817,0.187023,0.191009,0.19484,0.198572,0.202253,0.205924,0.209622,0.213375,0.217205,0.221129,0.225158,0.229299,0.233554,0.237921,0.242395,0.246966,0.251625,0.256357,0.261146,0.265976,0.27083,0.275688,0.280531,0.28534,0.290096,0.294782,0.299378,0.303868,0.308237,0.312469,0.316551,0.320472,0.32422,0.327788,0.331167,0.334353,0.337341,0.340129,0.342716,0.345103,0.347291,0.349285,0.351088,0.352707,0.354148,0.355419,0.356528,0.357485,0.358299,0.35898,0.359537,0.359983,0.360326,0.360576,0.360744,0.360838,0.360867,0.36084,0.360762,0.360641,0.360482,0.360288,0.360063,0.359807,0.359522,0.359207,0.358858,0.358472,0.358045,0.357568,0.357035,0.356436,0.35576,0.354996,0.35413,0.353149,0.352038,0.35078,0.34936,0.347759,0.345959,0.343943,0.341692,0.339187,0.336408,0.333338,0.329957,0.326246,0.322188,0.317763,0.312956,0.307748,0.302122,0.296062,0.289552,0.282576,0.275118,0.267162,0.258694,0.249697,0.240155,0.230052,0.21937,0.20809,0.196195,0.183664,0.170474,0.156603,0.142026,0.126717,0.110647,0.0937859,0.0761032,0.0575653,0.0381384,0.0177876,-0.00352198
0.129226,0.139742,0.149048,0.157271,0.16453,0.170943,0.176619,0.181663,0.186174,0.190243,0.193955,0.197386,0.200606,0.203678,0.206657,0.209592,0.212522,0.215484,0.218506,0.221609,0.22481,0.22812,0.231547,0.235092,0.238754,0.242526,0.246402,0.250369,0.254415,0.258524,0.26268,0.266866,0.271064,0.275255,0.27942,0.283541,0.287602,0.291584,0.295472,0.299252,0.302908,0.306431,0.309808,0.313031,0.316092,0.318986,0.321709,0.324258,0.326631,0.328831,0.330859,0.332719,0.334416,0.335955,0.337344,0.338592,0.339707,0.340699,0.341579,0.342356,0.343042,0.343649,0.344186,0.344665,0.345097,0.34549,0.345856,0.346201,0.346534,0.346862,0.34719,0.347523,0.347863,0.348213,0.348572,0.34894,0.349313,0.349688,0.350058,0.350416,0.350753,0.351058,0.351319,0.351523,0.351655,0.351698,0.351635,0.351448,0.351118,0.350623,0.349942,0.349055,0.347939,0.346572,0.34493,0.342992,0.340734,0.338135,0.335172,0.331822,0.328066,0.323882,0.319249,0.314149,0.308563,0.302471,0.295856,0.288701,0.280989,0.272703,0.263827,0.254344,0.244237,0.23349,0.222086,0.210006,0.197232,0.183744,0.169522,0.154544,0.138788,0.122228,0.10484,0.0865981,0.0674742,0.0474411,0.0264712,0.00453748
0.150283,0.159733,0.168003,0.175216,0.181493,0.186947,0.191688,0.195818,0.199435,0.202628,0.205479,0.208066,0.210456,0.21271,0.214883,0.217022,0.219168,0.221355,0.22361,0.225954,0.228405,0.230973,0.233665,0.236482,0.239423,0.242481,0.24565,0.248918,0.252271,0.255695,0.259174,0.262691,0.266227,0.269765,0.273288,0.276777,0.280216,0.283589,0.28688,0.290075,0.293163,0.296132,0.298974,0.301679,0.304243,0.30666,0.308928,0.311047,0.313016,0.314839,0.316518,0.31806,0.319469,0.320755,0.321926,0.322991,0.32396,0.324846,0.325658,0.326409,0.327111,0.327775,0.328414,0.329039,0.32966,0.330288,0.330932,0.331601,0.332302,0.333042,0.333826,0.334657,0.335538,0.336469,0.337448,0.338475,0.339543,0.340646,0.341778,0.342928,0.344084,0.345233,0.346361,0.347452,0.348486,0.349445,0.350309,0.351054,0.351659,0.3521,0.35235,0.352386,0.352182,0.35171,0.350945,0.34986,0.348429,0.346625,0.344424,0.3418,0.338727,0.335183,0.331144,0.326588,0.321493,0.315839,0.309605,0.302774,0.295325,0.287243,0.278509,0.269107,0.259019,0.248231,0.236725,0.224485,0.211494,0.197733,0.183187,0.167834,0.151657,0.134635,0.116748,0.0979733,0.0782902,0.0576773,0.0361137,0.0135795
0.172659,0.180937,0.188065,0.194167,0.199361,0.20376,0.207473,0.210601,0.21324,0.215478,0.217397,0.21907,0.220566,0.221945,0.223259,0.224554,0.225872,0.227243,0.228695,0.23025,0.231923,0.233724,0.235658,0.237729,0.239932,0.242264,0.244714,0.247272,0.249925,0.252658,0.255455,0.258299,0.261173,0.264059,0.266939,0.269797,0.272616,0.275381,0.278079,0.280695,0.283219,0.28564,0.287951,0.290145,0.292217,0.294165,0.295986,0.297683,0.299255,0.300708,0.302047,0.303278,0.30441,0.30545,0.30641,0.3073,0.308133,0.308919,0.309672,0.310404,0.311129,0.311859,0.312606,0.313383,0.3142,0.315069,0.315998,0.316997,0.318072,0.31923,0.320475,0.32181,0.323236,0.324754,0.32636,0.32805,0.329818,0.331657,0.333557,0.335505,0.337487,0.339489,0.341493,0.343478,0.345425,0.347311,0.349112,0.350802,0.352355,0.353744,0.35494,0.355914,0.356636,0.357077,0.357206,0.356993,0.356407,0.355419,0.354,0.352121,0.349754,0.346871,0.343448,0.339458,0.334877,0.329684,0.323855,0.317369,0.310209,0.302353,0.293785,0.284488,0.274444,0.263639,0.252056,0.239679,0.226495,0.212486,0.197639,0.181936,0.165363,0.147902,0.129538,0.110253,0.0900327,0.0688603,0.0467215,0.0236032
0.196325,0.20333,0.209215,0.214106,0.218121,0.221372,0.223968,0.226008,0.227589,0.228795,0.229709,0.230403,0.230943,0.231389,0.231791,0.232195,0.232639,0.233156,0.233771,0.234504,0.235369,0.236378,0.237534,0.238838,0.240288,0.241877,0.243596,0.245435,0.247379,0.249414,0.251523,0.253691,0.255898,0.258129,0.260366,0.262592,0.264793,0.266953,0.269058,0.271098,0.273061,0.274938,0.276723,0.27841,0.279996,0.281479,0.282859,0.284138,0.28532,0.286409,0.287413,0.28834,0.289199,0.29,0.290755,0.291476,0.292177,0.29287,0.293569,0.294288,0.295041,0.295841,0.296701,0.297634,0.298652,0.299766,0.300984,0.302316,0.30377,0.305349,0.30706,0.308903,0.31088,0.312988,0.315225,0.317585,0.32006,0.32264,0.325315,0.328069,0.330887,0.33375,0.336639,0.339531,0.342403,0.345228,0.34798,0.35063,0.353148,0.355503,0.357663,0.359595,0.361265,0.362639,0.363684,0.364365,0.364649,0.364501,0.36389,0.362782,0.361146,0.358952,0.35617,0.352773,0.348734,0.344028,0.33863,0.332519,0.325672,0.31807,0.309695,0.300528,0.290554,0.279756,0.268121,0.255633,0.242279,0.228045,0.212919,0.196889,0.17994,0.162061,0.143239,0.123463,0.102722,0.0810046,0.0583032,0.0346108
0.221255,0.226887,0.231433,0.235017,0.237759,0.239772,0.241163,0.242034,0.242476,0.242578,0.242417,0.242066,0.24159,0.241046,0.240484,0.239949,0.239478,0.2391,0.238841,0.23872,0.238751,0.238941,0.239295,0.239813,0.240491,0.241323,0.242298,0.243406,0.244632,0.245961,0.247376,0.248861,0.250399,0.251972,0.253563,0.255157,0.256738,0.258293,0.259808,0.261272,0.262675,0.264011,0.265272,0.266455,0.267557,0.268578,0.26952,0.270386,0.27118,0.27191,0.272583,0.273209,0.273799,0.274364,0.274918,0.275473,0.276045,0.276648,0.277296,0.278004,0.278787,0.27966,0.280635,0.281727,0.282947,0.284308,0.285817,0.287485,0.289318,0.291322,0.2935,0.295855,0.298385,0.301088,0.30396,0.306995,0.310182,0.313511,0.316968,0.320537,0.324199,0.327935,0.331721,0.335533,0.339344,0.343125,0.346845,0.350474,0.353977,0.357319,0.360465,0.363378,0.366021,0.368355,0.370343,0.371947,0.373129,0.373852,0.374078,0.373771,0.372898,0.371424,0.369316,0.366544,0.363078,0.35889,0.353955,0.348247,0.341745,0.334426,0.326272,0.317264,0.307387,0.296623,0.284961,0.272386,0.258886,0.24445,0.229068,0.212729,0.195424,0.177144,0.157881,0.137628,0.116378,0.0941265,0.07087,0.0466076