-0,-0,-0,-0,-0,-0,-0,-0,-0,-0,-0,-0,-0,-0,-0,-0,-0,-0,-0,-0,-0,-0,-0,-0,-0,-0,-0,-0,-0,-0,-0,-0,-0,-0,-0,-0,-0,-0,-0,-0,-0,-0,-0,-0,-0,-0,-0,-0,-0,-0,-0,-0,-0,-0,-0,-0,-0,-0,-0,-0,-0,-0,-0,-0,-0,-0,-0,-0,-0,-0,-0,-0,-0,-0,-0,-0,-0,-0,-0,-0,-0,-0,-0,-0,-0,-0,-0,-0,-0,-0,-0,-0,-0,-0,-0,-0,-0,-0,-0,-0,-0,-0,-0,-0,-0,-0,-0,-0,-0,-0,-0,-0,-0,-0,-0,-0,-0,-0,-0,-0,-0,-0,-0,-0,-0,-0,-0,-0
-0,2.76417e-08,1.0334e-07,1.95414e-07,2.78914e-07,3.3782e-07,3.62608e-07,3.47993e-07,2.91415e-07,1.9208e-07,5.03558e-08,-1.32621e-07,-3.55202e-07,-6.15411e-07,-9.11062e-07,-1.23985e-06,-1.59943e-06,-1.98743e-06,-2.40152e-06,-2.8394e-06,-3.29886e-06,-3.77775e-06,-4.27402e-06,-4.7857e-06,-5.31089e-06,-5.84781e-06,-6.39475e-06,-6.95007e-06,-7.51222e-06,-8.07971e-06,-8.65112e-06,-9.22507e-06,-9.80026e-06,-1.03754e-05,-1.09493e-05,-1.15207e-05,-1.20884e-05,-1.26512e-05,-1.32082e-05,-1.37579e-05,-1.42995e-05,-1.48317e-05,-1.53533e-05,-1.58633e-05,-1.63606e-05,-1.68439e-05,-1.73121e-05,-1.77641e-05,-1.81988e-05,-1.86149e-05,-1.90113e-05,-1.93869e-05,-1.97405e-05,-2.0071e-05,-2.03772e-05,-2.06581e-05,-2.09125e-05,-2.11395e-05,-2.13381e-05,-2.15072e-05,-2.1646e-05,-2.17536e-05,-2.18293e-05,-2.18723e-05,-2.1882e-05,-2.18579e-05,-2.17995e-05,-2.17065e-05,-2.15786e-05,-2.14158e-05,-2.1218e-05,-2.09853e-05,-2.07181e-05,-2.04167e-05,-2.00817e-05,-1.97136e-05,-1.93134e-05,-1.88821e-05,-1.84206e-05,-1.79304e-05,-1.74127e-05,-1.68692e-05,-1.63015e-05,-1.57115e-05,-1.5101e-05,-1.44722e-05,-1.38272e-05,-1.31684e-05,-1.24981e-05,-1.18187e-05,-1.11329e-05,-1.04432e-05,-9.75222e-06,-9.06275e-06,-8.37747e-06,-7.69909e-06,-7.03034e-06,-6.37391e-06,-5.73246e-06,-5.10861e-06,-4.5049e-06,-3.92381e-06,-3.36769e-06,-2.83882e-06,-2.33934e-06,-1.87124e-06,-1.43637e-06,-1.0364e-06,-6.72833e-07,-3.46946e-07,-5.98073e-08,1.87763e-07,3.95213e-07,5.6229e-07,6.89079e-07,7.76052e-07,8.24129e-07,8.34761e-07,8.10045e-07,7.52878e-07,6.67179e-07,5.58197e-07,4.32961e-07,3.00903e-07,1.74664e-07,7.07384e-08,8.36787e-09,-0
-0,1.03428e-07,3.27368e-07,5.82196e-07,7.9758e-07,9.24392e-07,9.30626e-07,7.96805e-07,5.12316e-07,7.27488e-08,-5.21969e-07,-1.26888e-06,-2.16294e-06,-3.19766e-06,-4.36559e-06,-5.65868e-06,-7.06856e-06,-8.58668e-06,-1.02045e-05,-1.19136e-05,-1.37058e-05,-1.55729e-05,-1.75072e-05,-1.95013e-05,-2.15479e-05,-2.36402e-05,-2.57716e-05,-2.79358e-05,-3.01266e-05,-3.23383e-05,-3.45654e-05,-3.68025e-05,-3.90443e-05,-4.12859e-05,-4.35223e-05,-4.57488e-05,-4.79608e-05,-5.01536e-05,-5.23227e-05,-5.44636e-05,-5.65717e-05,-5.86428e-05,-6.06722e-05,-6.26556e-05,-6.45886e-05,-6.64665e-05,-6.8285e-05,-7.00396e-05,-7.17258e-05,-7.3339e-05,-7.48749e-05,-7.6329e-05,-7.76968e-05,-7.8974e-05,-8.01564e-05,-8.12396e-05,-8.22197e-05,-8.30927e-05,-8.38547e-05,-8.45022e-05,-8.50317e-05,-8.544e-05,-8.57243e-05,-8.58819e-05,-8.59104e-05,-8.5808e-05,-8.55729e-05,-8.5204e-05,-8.47004e-05,-8.40619e-05,-8.32884e-05,-8.23807e-05,-8.13397e-05,-8.0167e-05,-7.88649e-05,-7.7436e-05,-7.58835e-05,-7.42111e-05,-7.24233e-05,-7.05248e-05,-6.85212e-05,-6.64183e-05,-6.42227e-05,-6.19413e-05,-5.95816e-05,-5.71515e-05,-5.46594e-05,-5.2114e-05,-4.95245e-05,-4.69001e-05,-4.42507e-05,-4.15861e-05,-3.89165e-05,-3.62521e-05,-3.36033e-05,-3.09804e-05,-2.83938e-05,-2.58536e-05,-2.33701e-05,-2.09531e-05,-1.86124e-05,-1.63572e-05,-1.41965e-05,-1.2139e-05,-1.01927e-05,-8.36515e-06,-6.66327e-06,-5.09335e-06,-3.66094e-06,-2.37079e-06,-1.22678e-06,-2.31826e-07,6.12217e-07,1.30467e-06,1.84618e-06,2.2389e-06,2.48673e-06,2.59559e-06,2.57383e-06,2.43276e-06,2.18726e-06,1.85677e-06,1.46637e-06,1.04817e-06,6.42639e-07,2.98866e-07,7.05972e-08,-0
-0,1.95919e-07,5.83133e-07,9.96656e-07,1.31033e-06,1.43343e-06,1.3042e-06,8.83171e-07,1.47501e-07,-9.13435e-07,-2.30136e-06,-4.01157e-06,-6.03473e-06,-8.35825e-06,-1.09673e-05,-1.38455e-05,-1.69756e-05,-2.03399e-05,-2.39204e-05,-2.76994e-05,-3.16593e-05,-3.57829e-05,-4.00535e-05,-4.44551e-05,-4.89719e-05,-5.35891e-05,-5.82923e-05,-6.30675e-05,-6.79016e-05,-7.27818e-05,-7.76956e-05,-8.26313e-05,-8.75774e-05,-9.25227e-05,-9.74562e-05,-0.000102368,-0.000107246,-0.000112082,-0.000116864,-0.000121584,-0.00012623,-0.000130794,-0.000135265,-0.000139633,-0.000143888,-0.000148022,-0.000152023,-0.000155881,-0.000159588,-0.000163133,-0.000166506,-0.000169698,-0.000172698,-0.000175498,-0.000178088,-0.000180459,-0.000182602,-0.000184509,-0.000186171,-0.000187581,-0.00018873,-0.000189613,-0.000190224,-0.000190555,-0.000190603,-0.000190364,-0.000189834,-0.00018901,-0.000187891,-0.000186477,-0.000184767,-0.000182763,-0.000180468,-0.000177886,-0.00017502,-0.000171877,-0.000168465,-0.000164791,-0.000160864,-0.000156697,-0.0001523,-0.000147687,-0.000142871,-0.000137869,-0.000132695,-0.000127368,-0.000121906,-0.000116327,-0.000110652,-0.0001049,-9.90932e-05,-9.32529e-05,-8.74008e-05,-8.15593e-05,-7.57508e-05,-6.99976e-05,-6.43221e-05,-5.87465e-05,-5.32928e-05,-4.79823e-05,-4.2836e-05,-3.7874e-05,-3.31159e-05,-2.858e-05,-2.42839e-05,-2.02436e-05,-1.64741e-05,-1.29889e-05,-9.79981e-06,-6.91684e-06,-4.34817e-06,-2.09982e-06,-1.75468e-07,1.42379e-06,2.69979e-06,3.65763e-06,4.30618e-06,4.65865e-06,4.73336e-06,4.55467e-06,4.15422e-06,3.57239e-06,2.86005e-06,2.08052e-06,1.311e-06,6.42342e-07,1.74212e-07,-0
-0,2.80339e-07,8.00644e-07,1.31304e-06,1.63048e-06,1.61675e-06,1.17685e-06,2.48184e-07,-1.20683e-06,-3.20682e-06,-5.75613e-06,-8.8485e-06,-1.24699e-05,-1.66005e-05,-2.12165e-05,-2.62914e-05,-3.17969e-05,-3.77036e-05,-4.39815e-05,-5.06008e-05,-5.75318e-05,-6.47455e-05,-7.22133e-05,-7.99079e-05,-8.78023e-05,-9.58708e-05,-0.000104089,-0.000112432,-0.000120877,-0.000129402,-0.000137986,-0.000146607,-0.000155246,-0.000163883,-0.000172499,-0.000181075,-0.000189593,-0.000198034,-0.000206382,-0.000214619,-0.000222726,-0.000230687,-0.000238485,-0.000246101,-0.00025352,-0.000260722,-0.000267692,-0.000274412,-0.000280865,-0.000287033,-0.0002929,-0.000298449,-0.000303663,-0.000308526,-0.000313021,-0.000317133,-0.000320847,-0.000324148,-0.000327021,-0.000329454,-0.000331434,-0.00033295,-0.00033399,-0.000334545,-0.000334608,-0.00033417,-0.000333227,-0.000331775,-0.00032981,-0.000327332,-0.000324342,-0.000320843,-0.000316838,-0.000312335,-0.000307343,-0.000301871,-0.000295931,-0.000289539,-0.000282712,-0.000275467,-0.000267825,-0.000259809,-0.000251443,-0.000242754,-0.000233769,-0.000224518,-0.000215034,-0.000205347,-0.000195493,-0.000185506,-0.000175423,-0.000165281,-0.000155118,-0.000144971,-0.000134879,-0.00012488,-0.000115014,-0.000105318,-9.58288e-05,-8.65846e-05,-7.76207e-05,-6.89716e-05,-6.06708e-05,-5.27498e-05,-4.52384e-05,-3.81643e-05,-3.15529e-05,-2.54271e-05,-1.98069e-05,-1.47094e-05,-1.01482e-05,-6.13325e-06,-2.67044e-06,2.3881e-07,2.59812e-06,4.41671e-06,5.71018e-06,6.50144e-06,6.82182e-06,6.71246e-06,6.22605e-06,5.42875e-06,4.40252e-06,3.24734e-06,2.08289e-06,1.04865e-06,3.0027e-07,-0
-0,3.40641e-07,9.30423e-07,1.43953e-06,1.61956e-06,1.28805e-06,3.158e-07,-1.38395e-06,-3.86457e-06,-7.15347e-06,-1.12581e-05,-1.61706e-05,-2.18719e-05,-2.83342e-05,-3.55235e-05,-4.34016e-05,-5.19273e-05,-6.10576e-05,-7.07485e-05,-8.09556e-05,-9.1635e-05,-0.000102743,-0.000114237,-0.000126076,-0.000138219,-0.000150628,-0.000163264,-0.000176091,-0.000189073,-0.000202178,-0.000215371,-0.000228621,-0.000241897,-0.000255168,-0.000268406,-0.000281581,-0.000294666,-0.000307632,-0.000320452,-0.000333098,-0.000345545,-0.000357764,-0.000369729,-0.000381414,-0.000392792,-0.000403836,-0.000414521,-0.000424818,-0.000434703,-0.000444149,-0.00045313,-0.000461621,-0.000469595,-0.000477028,-0.000483895,-0.000490173,-0.000495839,-0.00050087,-0.000505244,-0.000508943,-0.000511947,-0.000514239,-0.000515803,-0.000516624,-0.000516691,-0.000515993,-0.000514522,-0.000512272,-0.000509239,-0.000505423,-0.000500826,-0.000495451,-0.000489305,-0.0004824,-0.000474748,-0.000466365,-0.00045727,-0.000447486,-0.000437038,-0.000425954,-0.000414266,-0.000402008,-0.000389218,-0.000375935,-0.000362201,-0.000348063,-0.000333567,-0.000318764,-0.000303704,-0.000288441,-0.00027303,-0.000257526,-0.000241988,-0.000226472,-0.000211036,-0.00019574,-0.000180641,-0.000165797,-0.000151263,-0.000137097,-0.000123352,-0.000110081,-9.73331e-05,-8.51566e-05,-7.35964e-05,-6.2694e-05,-5.24878e-05,-4.3012e-05,-3.42967e-05,-2.63673e-05,-1.9244e-05,-1.29414e-05,-7.46791e-06,-2.82528e-06,9.92424e-07,3.99953e-06,6.21982e-06,7.68776e-06,8.45006e-06,8.56741e-06,8.11664e-06,7.19309e-06,5.91331e-06,4.41764e-06,2.87243e-06,1.47105e-06,4.32909e-07,-0
-0,3.67028e-07,9.39262e-07,1.31155e-06,1.17736e-06,3.09835e-07,-1.45338e-06,-4.22269e-06,-8.06699e-06,-1.30224e-05,-1.90992e-05,-2.62879e-05,-3.45634e-05,-4.38893e-05,-5.42206e-05,-6.5506e-05,-7.76898e-05,-9.07139e-05,-0.000104518,-0.000119042,-0.000134225,-0.000150008,-0.00016633,-0.000183136,-0.000200368,-0.000217971,-0.000235894,-0.000254085,-0.000272494,-0.000291073,-0.000309776,-0.000328558,-0.000347375,-0.000366183,-0.000384942,-0.00040361,-0.000422147,-0.000440514,-0.000458671,-0.00047658,-0.000494202,-0.000511499,-0.000528434,-0.000544968,-0.000561064,-0.000576684,-0.00059179,-0.000606346,-0.000620314,-0.000633657,-0.000646339,-0.000658323,-0.000669574,-0.000680057,-0.000689736,-0.00069858,-0.000706556,-0.000713632,-0.00071978,-0.000724971,-0.000729179,-0.00073238,-0.000734552,-0.000735676,-0.000735735,-0.000734714,-0.000732603,-0.000729393,-0.000725081,-0.000719665,-0.000713149,-0.000705537,-0.000696842,-0.000687077,-0.000676262,-0.000664419,-0.000651575,-0.000637762,-0.000623016,-0.000607376,-0.000590887,-0.000573597,-0.000555558,-0.000536827,-0.000517462,-0.000497527,-0.000477089,-0.000456216,-0.000434982,-0.00041346,-0.000391727,-0.000369861,-0.000347942,-0.000326051,-0.000304269,-0.000282676,-0.000261355,-0.000240385,-0.000219846,-0.000199815,-0.000180368,-0.000161577,-0.000143512,-0.00012624,-0.000109824,-9.43207e-05,-7.9784e-05,-6.62613e-05,-5.37942e-05,-4.24177e-05,-3.21597e-05,-2.30401e-05,-1.50704e-05,-8.25235e-06,-2.57752e-06,1.97424e-06,5.43594e-06,7.85505e-06,9.29534e-06,9.839e-06,9.58913e-06,8.67254e-06,7.2427e-06,5.48289e-06,3.60907e-06,1.87227e-06,5.60395e-07,-0
-0,3.53686e-07,8.05609e-07,8.85004e-07,2.33163e-07,-1.41729e-06,-4.25918e-06,-8.42469e-06,-1.3997e-05,-2.10198e-05,-2.95056e-05,-3.94423e-05,-5.07984e-05,-6.35277e-05,-7.75731e-05,-9.28691e-05,-0.000109345,-0.000126924,-0.000145531,-0.000165086,-0.00018551,-0.000206726,-0.000228656,-0.000251224,-0.000274357,-0.000297982,-0.00032203,-0.000346433,-0.000371124,-0.00039604,-0.000421119,-0.0004463,-0.000471525,-0.000496736,-0.000521877,-0.000546894,-0.000571733,-0.000596339,-0.000620661,-0.000644647,-0.000668245,-0.000691404,-0.000714072,-0.0007362,-0.000757737,-0.000778632,-0.000798835,-0.000818297,-0.000836967,-0.000854796,-0.000871736,-0.000887739,-0.000902757,-0.000916743,-0.000929652,-0.00094144,-0.000952065,-0.000961484,-0.000969661,-0.000976556,-0.000982137,-0.000986372,-0.000989231,-0.000990691,-0.000990727,-0.000989323,-0.000986465,-0.000982142,-0.000976348,-0.000969084,-0.000960352,-0.000950163,-0.000938531,-0.000925474,-0.00091102,-0.000895197,-0.000878044,-0.0008596,-0.000839916,-0.000819042,-0.000797039,-0.00077397,-0.000749905,-0.000724917,-0.000699086,-0.000672496,-0.000645234,-0.000617392,-0.000589067,-0.000560355,-0.000531359,-0.000502181,-0.000472928,-0.000443705,-0.000414621,-0.000385781,-0.000357294,-0.000329265,-0.000301798,-0.000274997,-0.000248961,-0.000223786,-0.000199564,-0.000176382,-0.000154324,-0.000133465,-0.000113876,-9.56181e-05,-7.87472e-05,-6.33089e-05,-4.93396e-05,-3.68653e-05,-2.59007e-05,-1.64481e-05,-8.49621e-06,-2.01863e-06,3.02755e-06,6.70373e-06,9.09187e-06,1.02969e-05,1.04497e-05,9.70992e-06,8.26944e-06,6.35614e-06,4.23741e-06,2.22403e-06,6.74389e-07,-0
-0,2.97288e-07,5.15943e-07,1.30721e-07,-1.26158e-06,-3.96342e-06,-8.19415e-06,-1.41048e-05,-2.17905e-05,-3.13009e-05,-4.26494e-05,-5.582e-05,-7.07736e-05,-8.74534e-05,-0.000105789,-0.000125699,-0.000147097,-0.000169888,-0.000193976,-0.000219264,-0.000245652,-0.000273043,-0.000301339,-0.000330445,-0.000360268,-0.000390716,-0.000421699,-0.000453133,-0.000484933,-0.000517017,-0.000549305,-0.000581721,-0.000614189,-0.000646635,-0.000678988,-0.000711176,-0.000743129,-0.000774781,-0.000806062,-0.000836906,-0.000867246,-0.000897016,-0.000926151,-0.000954586,-0.000982255,-0.00100909,-0.00103504,-0.00106002,-0.00108399,-0.00110686,-0.00112859,-0.00114912,-0.00116837,-0.00118629,-0.00120282,-0.00121792,-0.00123151,-0.00124356,-0.00125401,-0.00126281,-0.00126992,-0.00127531,-0.00127893,-0.00128076,-0.00128076,-0.00127891,-0.00127521,-0.00126962,-0.00126216,-0.00125281,-0.00124158,-0.00122849,-0.00121356,-0.0011968,-0.00117826,-0.00115796,-0.00113597,-0.00111233,-0.0010871,-0.00106035,-0.00103216,-0.0010026,-0.000971772,-0.000939764,-0.000906676,-0.000872616,-0.000837695,-0.00080203,-0.000765742,-0.000728955,-0.0006918,-0.000654407,-0.000616909,-0.000579441,-0.000542141,-0.000505143,-0.000468585,-0.000432599,-0.00039732,-0.000362876,-0.000329394,-0.000296996,-0.0002658,-0.000235915,-0.000207446,-0.00018049,-0.000155136,-0.000131462,-0.000109538,-8.9422e-05,-7.11598e-05,-5.47842e-05,-4.03139e-05,-2.77517e-05,-1.70836e-05,-8.27696e-06,-1.27844e-06,3.98776e-06,7.62242e-06,9.75404e-06,1.05418e-05,1.01792e-05,8.89729e-06,6.96937e-06,4.71505e-06,2.50542e-06,7.69063e-07,-0
-0,1.96067e-07,6.22084e-08,-9.69769e-07,-3.33895e-06,-7.3764e-06,-1.3323e-05,-2.13448e-05,-3.1546e-05,-4.39799e-05,-5.86585e-05,-7.55605e-05,-9.46379e-05,-0.000115822,-0.000139027,-0.000164157,-0.000191105,-0.000219758,-0.00025,-0.000281712,-0.000314774,-0.000349067,-0.000384472,-0.000420871,-0.000458151,-0.0004962,-0.000534907,-0.000574167,-0.000613875,-0.00065393,-0.000694235,-0.000734692,-0.000775208,-0.000815692,-0.000856053,-0.000896204,-0.000936057,-0.000975528,-0.00101453,-0.00105298,-0.0010908,-0.0011279,-0.00116421,-0.00119963,-0.0012341,-0.00126752,-0.00129982,-0.00133093,-0.00136075,-0.00138921,-0.00141624,-0.00144176,-0.00146569,-0.00148797,-0.00150851,-0.00152725,-0.00154412,-0.00155907,-0.00157202,-0.00158292,-0.00159172,-0.00159838,-0.00160283,-0.00160506,-0.00160501,-0.00160268,-0.00159802,-0.00159104,-0.00158172,-0.00157007,-0.00155609,-0.00153979,-0.0015212,-0.00150036,-0.0014773,-0.00145207,-0.00142473,-0.00139535,-0.00136401,-0.00133078,-0.00129575,-0.00125904,-0.00122075,-0.001181,-0.0011399,-0.00109759,-0.00105422,-0.00100991,-0.000964833,-0.000919128,-0.000872957,-0.000826482,-0.000779868,-0.00073328,-0.000686886,-0.000640855,-0.000595352,-0.000550544,-0.000506594,-0.000463662,-0.000421902,-0.000381466,-0.000342496,-0.000305129,-0.000269495,-0.000235711,-0.000203887,-0.000174119,-0.000146493,-0.000121081,-9.79386e-05,-7.71063e-05,-5.86074e-05,-4.24459e-05,-2.86053e-05,-1.70465e-05,-7.70607e-06,-4.9356e-07,4.7109e-06,8.05957e-06,9.74041e-06,9.98072e-06,9.0512e-06,7.27049e-06,5.0103e-06,2.7013e-06,8.40399e-07,-0
-0,4.92386e-08,-5.59946e-07,-2.42735e-06,-6.01893e-06,-1.16872e-05,-1.96891e-05,-3.0201e-05,-4.33325e-05,-5.91377e-05,-7.76249e-05,-9.87653e-05,-0.0001225,-0.000148748,-0.000177406,-0.000208361,-0.000241486,-0.000276648,-0.00031371,-0.00035253,-0.000392965,-0.000434873,-0.000478114,-0.000522546,-0.000568034,-0.000614442,-0.000661639,-0.000709497,-0.00075789,-0.000806697,-0.000855798,-0.000905077,-0.000954421,-0.00100372,-0.00105286,-0.00110174,-0.00115025,-0.00119828,-0.00124574,-0.00129253,-0.00133853,-0.00138366,-0.00142781,-0.00147089,-0.00151278,-0.00155341,-0.00159267,-0.00163045,-0.00166668,-0.00170125,-0.00173407,-0.00176504,-0.00179409,-0.00182111,-0.00184602,-0.00186874,-0.0018892,-0.0019073,-0.00192298,-0.00193617,-0.00194681,-0.00195484,-0.00196021,-0.00196286,-0.00196277,-0.00195989,-0.00195421,-0.0019457,-0.00193436,-0.00192019,-0.0019032,-0.00188341,-0.00186085,-0.00183555,-0.00180758,-0.00177697,-0.00174382,-0.00170819,-0.00167018,-0.00162989,-0.00158743,-0.00154292,-0.0014965,-0.00144831,-0.00139848,-0.00134719,-0.0012946,-0.00124088,-0.00118621,-0.00113078,-0.00107477,-0.00101838,-0.000961811,-0.000905259,-0.000848925,-0.000793013,-0.000737721,-0.000683251,-0.000629797,-0.000577551,-0.000526701,-0.000477426,-0.0004299,-0.000384287,-0.00034074,-0.000299404,-0.000260409,-0.000223871,-0.000189894,-0.000158563,-0.000129946,-0.000104092,-8.10305e-05,-6.07661e-05,-4.32807e-05,-2.85293e-05,-1.64383e-05,-6.9029e-06,2.15716e-07,5.09347e-06,7.9469e-06,9.03701e-06,8.67365e-06,7.22035e-06,5.09991e-06,2.80093e-06,8.85686e-07,-0
-0,-1.43349e-07,-1.35236e-06,-4.24755e-06,-9.31271e-06,-1.69144e-05,-2.73193e-05,-4.07094e-05,-5.71954e-05,-7.68288e-05,-9.96114e-05,-0.000125505,-0.000154437,-0.000186311,-0.000221009,-0.000258395,-0.000298323,-0.000340638,-0.00038518,-0.000431783,-0.000480281,-0.000530509,-0.0005823,-0.00063549,-0.000689919,-0.000745428,-0.000801862,-0.000859071,-0.000916905,-0.000975221,-0.00103388,-0.00109274,-0.00115166,-0.00121052,-0.00126919,-0.00132754,-0.00138543,-0.00144276,-0.00149939,-0.00155521,-0.00161009,-0.00166391,-0.00171656,-0.00176792,-0.00181786,-0.00186629,-0.00191307,-0.0019581,-0.00200125,-0.00204243,-0.00208151,-0.00211839,-0.00215296,-0.00218511,-0.00221475,-0.00224178,-0.00226609,-0.00228761,-0.00230624,-0.00232191,-0.00233453,-0.00234405,-0.0023504,-0.00235352,-0.00235337,-0.00234992,-0.00234312,-0.00233298,-0.00231946,-0.00230259,-0.00228236,-0.00225881,-0.00223196,-0.00220187,-0.00216859,-0.0021322,-0.00209277,-0.00205041,-0.00200522,-0.00195732,-0.00190684,-0.00185394,-0.00179875,-0.00174145,-0.00168222,-0.00162124,-0.0015587,-0.00149482,-0.00142979,-0.00136385,-0.00129721,-0.00123011,-0.00116277,-0.00109544,-0.00102834,-0.000961725,-0.000895822,-0.000830869,-0.000767096,-0.00070473,-0.000643991,-0.000585092,-0.000528237,-0.00047362,-0.000421423,-0.000371814,-0.000324948,-0.000280964,-0.000239982,-0.000202104,-0.000167412,-0.000135963,-0.000107793,-8.29087e-05,-6.12917e-05,-4.28912e-05,-2.7624e-05,-1.53714e-05,-5.97615e-06,7.60957e-07,5.08448e-06,7.28854e-06,7.72129e-06,6.79007e-06,4.9672e-06,2.79686e-06,9.03149e-07,-0
-0,-3.81447e-07,-2.31518e-06,-6.43215e-06,-1.32251e-05,-2.3067e-05,-3.62281e-05,-5.28905e-05,-7.31618e-05,-9.70867e-05,-0.000124658,-0.000155823,-0.000190498,-0.000228565,-0.000269889,-0.000314313,-0.000361668,-0.000411777,-0.000464454,-0.00051951,-0.000576754,-0.000635994,-0.000697038,-0.000759699,-0.000823789,-0.000889125,-0.000955528,-0.00102282,-0.00109084,-0.0011594,-0.00122835,-0.00129753,-0.00136677,-0.00143593,-0.00150484,-0.00157337,-0.00164137,-0.00170868,-0.00177517,-0.0018407,-0.00190511,-0.00196828,-0.00203007,-0.00209032,-0.00214892,-0.00220572,-0.00226058,-0.00231338,-0.00236397,-0.00241224,-0.00245804,-0.00250125,-0.00254176,-0.00257942,-0.00261413,-0.00264578,-0.00267424,-0.00269943,-0.00272123,-0.00273955,-0.00275431,-0.00276543,-0.00277284,-0.00277647,-0.00277627,-0.00277221,-0.00276424,-0.00275234,-0.00273651,-0.00271675,-0.00269307,-0.0026655,-0.00263408,-0.00259887,-0.00255994,-0.00251736,-0.00247124,-0.00242168,-0.00236882,-0.00231279,-0.00225374,-0.00219185,-0.00212729,-0.00206026,-0.00199096,-0.0019196,-0.00184642,-0.00177165,-0.00169554,-0.00161833,-0.0015403,-0.0014617,-0.0013828,-0.00130389,-0.00122524,-0.00114711,-0.00106979,-0.000993554,-0.000918663,-0.000845382,-0.000773968,-0.000704668,-0.000637719,-0.000573346,-0.000511761,-0.000453161,-0.000397725,-0.000345614,-0.00029697,-0.000251912,-0.000210534,-0.000172906,-0.00013907,-0.000109038,-8.27889e-05,-6.02683e-05,-4.13842e-05,-2.60046e-05,-1.39544e-05,-5.01219e-06,1.09396e-06,4.69026e-06,6.16201e-06,5.95883e-06,4.60055e-06,2.68413e-06,8.91689e-07,-0
-0,-6.64552e-07,-3.4474e-06,-8.98027e-06,-1.77562e-05,-3.01474e-05,-4.64208e-05,-6.67532e-05,-9.12442e-05,-0.000119928,-0.000152784,-0.000189746,-0.000230709,-0.000275539,-0.000324077,-0.000376145,-0.00043155,-0.00049009,-0.000551554,-0.000615727,-0.000682391,-0.000751327,-0.000822318,-0.00089515,-0.000969608,-0.00104548,-0.00112257,-0.00120067,-0.00127958,-0.00135912,-0.00143908,-0.00151929,-0.00159957,-0.00167973,-0.00175961,-0.00183902,-0.00191781,-0.00199579,-0.00207281,-0.0021487,-0.0022233,-0.00229644,-0.00236797,-0.00243773,-0.00250555,-0.00257129,-0.00263478,-0.00269586,-0.0027544,-0.00281022,-0.0028632,-0.00291317,-0.00296,-0.00300354,-0.00304367,-0.00308024,-0.00311313,-0.00314223,-0.00316741,-0.00318858,-0.00320563,-0.00321847,-0.00322702,-0.00323121,-0.00323098,-0.00322628,-0.00321708,-0.00320334,-0.00318507,-0.00316226,-0.00313493,-0.00310311,-0.00306685,-0.00302621,-0.00298128,-0.00293215,-0.00287892,-0.00282174,-0.00276074,-0.00269608,-0.00262794,-0.00255651,-0.00248199,-0.00240462,-0.00232461,-0.00224223,-0.00215772,-0.00207137,-0.00198345,-0.00189425,-0.00180407,-0.00171322,-0.001622,-0.00153073,-0.00143973,-0.00134931,-0.00125979,-0.00117147,-0.00108467,-0.000999691,-0.000916823,-0.00083635,-0.000758546,-0.000683668,-0.00061196,-0.000543648,-0.000478938,-0.000418017,-0.000361047,-0.000308166,-0.000259485,-0.000215084,-0.000175015,-0.000139293,-0.000107898,-8.0773e-05,-5.78174e-05,-3.88871e-05,-2.37902e-05,-1.22838e-05,-4.06989e-06,1.20852e-06,3.97245e-06,4.71196e-06,3.99208e-06,2.45958e-06,8.5069e-07,-0
-0,-9.92002e-07,-4.74727e-06,-1.18892e-05,-2.29031e-05,-3.81526e-05,-5.78953e-05,-8.2297e-05,-0.000111444,-0.000145357,-0.000183997,-0.000227279,-0.000275079,-0.000327241,-0.000383581,-0.000443899,-0.000507975,-0.000575581,-0.000646478,-0.000720426,-0.000797177,-0.000876487,-0.000958109,-0.0010418,-0.00112732,-0.00121444,-0.00130292,-0.00139253,-0.00148305,-0.00157426,-0.00166594,-0.00175789,-0.0018499,-0.00194176,-0.00203328,-0.00212426,-0.00221451,-0.00230383,-0.00239203,-0.00247893,-0.00256434,-0.00264807,-0.00272995,-0.00280979,-0.00288741,-0.00296262,-0.00303526,-0.00310515,-0.00317211,-0.00323596,-0.00329655,-0.00335369,-0.00340724,-0.00345702,-0.0035029,-0.0035447,-0.00358231,-0.00361556,-0.00364435,-0.00366855,-0.00368804,-0.00370272,-0.0037125,-0.00371731,-0.00371707,-0.00371173,-0.00370125,-0.0036856,-0.00366476,-0.00363875,-0.00360759,-0.0035713,-0.00352995,-0.00348361,-0.00343237,-0.00337633,-0.00331562,-0.00325039,-0.0031808,-0.00310704,-0.0030293,-0.00294779,-0.00286276,-0.00277446,-0.00268314,-0.00258909,-0.00249261,-0.00239399,-0.00229357,-0.00219166,-0.00208862,-0.00198477,-0.00188048,-0.00177609,-0.00167197,-0.00156848,-0.00146597,-0.0013648,-0.00126531,-0.00116785,-0.00107275,-0.000980335,-0.000890915,-0.000804781,-0.000722212,-0.000643464,-0.000568774,-0.000498352,-0.000432385,-0.000371031,-0.000314418,-0.00026264,-0.000215757,-0.000173791,-0.000136726,-0.000104499,-7.70047e-05,-5.40874e-05,-3.55398e-05,-2.10987e-05,-1.04415e-05,-3.18155e-06,1.13593e-06,3.03944e-06,3.13675e-06,2.12138e-06,7.79871e-07,-0
-0,-1.36304e-06,-6.21253e-06,-1.51551e-05,-2.86602e-05,-4.70762e-05,-7.06447e-05,-9.95147e-05,-0.000133755,-0.000173366,-0.000218289,-0.000268417,-0.000323603,-0.000383665,-0.000448396,-0.000517566,-0.000590931,-0.000668234,-0.000749207,-0.000833581,-0.000921082,-0.00101143,-0.00110436,-0.0011996,-0.00129687,-0.00139592,-0.00149647,-0.00159829,-0.00170111,-0.00180468,-0.00190878,-0.00201316,-0.00211758,-0.00222182,-0.00232566,-0.00242887,-0.00253124,-0.00263254,-0.00273256,-0.0028311,-0.00292793,-0.00302286,-0.00311567,-0.00320617,-0.00329413,-0.00337937,-0.00346168,-0.00354087,-0.00361672,-0.00368906,-0.00375769,-0.00382242,-0.00388307,-0.00393946,-0.00399141,-0.00403876,-0.00408135,-0.00411903,-0.00415164,-0.00417905,-0.00420115,-0.0042178,-0.00422892,-0.00423441,-0.0042342,-0.00422821,-0.00421642,-0.00419879,-0.0041753,-0.00414596,-0.0041108,-0.00406985,-0.00402318,-0.00397086,-0.00391301,-0.00384973,-0.00378118,-0.00370751,-0.00362892,-0.00354559,-0.00345776,-0.00336568,-0.00326959,-0.00316979,-0.00306657,-0.00296024,-0.00285114,-0.00273961,-0.002626,-0.00251069,-0.00239406,-0.00227649,-0.00215838,-0.00204013,-0.00192213,-0.0018048,-0.00168853,-0.00157372,-0.00146076,-0.00135005,-0.00124195,-0.00113682,-0.00103502,-0.000936881,-0.000842709,-0.000752796,-0.000667408,-0.000586787,-0.000511143,-0.000440655,-0.000375471,-0.0003157,-0.000261412,-0.000212639,-0.000169364,-0.000131526,-9.90139e-05,-7.1662e-05,-4.92488e-05,-3.14925e-05,-1.8047e-05,-8.4983e-06,-2.35933e-06,9.34614e-07,2.03149e-06,1.66859e-06,6.79185e-07,-0
-0,-1.77686e-06,-7.8406e-06,-1.87731e-05,-3.50206e-05,-5.6909e-05,-8.46579e-05,-0.000118394,-0.000158162,-0.00020394,-0.000255645,-0.000313144,-0.000376262,-0.000444792,-0.000518498,-0.000597123,-0.000680392,-0.000768018,-0.000859706,-0.000955154,-0.00105406,-0.00115612,-0.00126102,-0.00136847,-0.00147817,-0.00158983,-0.00170314,-0.00181784,-0.00193364,-0.00205027,-0.00216745,-0.00228493,-0.00240244,-0.00251973,-0.00263654,-0.00275264,-0.00286777,-0.00298169,-0.00309416,-0.00320495,-0.00331381,-0.00342052,-0.00352485,-0.00362655,-0.00372541,-0.0038212,-0.00391369,-0.00400266,-0.0040879,-0.00416917,-0.00424627,-0.00431899,-0.00438713,-0.00445048,-0.00450885,-0.00456205,-0.00460991,-0.00465225,-0.00468892,-0.00471975,-0.00474462,-0.00476339,-0.00477595,-0.0047822,-0.00478206,-0.00477545,-0.00476233,-0.00474267,-0.00471644,-0.00468366,-0.00464435,-0.00459856,-0.00454635,-0.00448782,-0.00442308,-0.00435226,-0.00427552,-0.00419304,-0.00410503,-0.00401172,-0.00391334,-0.00381018,-0.00370251,-0.00359067,-0.00347497,-0.00335576,-0.00323342,-0.00310833,-0.00298088,-0.00285149,-0.00272057,-0.00258857,-0.00245591,-0.00232304,-0.00219041,-0.00205847,-0.00192767,-0.00179845,-0.00167126,-0.00154651,-0.00142462,-0.00130602,-0.00119107,-0.00108016,-0.000973639,-0.000871823,-0.000775016,-0.000683487,-0.000597474,-0.000517182,-0.000442776,-0.000374383,-0.000312088,-0.000255928,-0.000205893,-0.000161924,-0.000123903,-9.16581e-05,-6.49546e-05,-4.34933e-05,-2.6907e-05,-1.47554e-05,-6.52162e-06,-1.60683e-06,6.74638e-07,1.10091e-06,5.48732e-07,-0
-0,-2.23264e-06,-9.62873e-06,-2.27379e-05,-4.1976e-05,-6.764e-05,-9.99211e-05,-0.000138918,-0.000184648,-0.00023706,-0.000296042,-0.000361433,-0.000433029,-0.000510593,-0.000593857,-0.000682533,-0.000776317,-0.00087489,-0.000977925,-0.00108509,-0.00119605,-0.00131047,-0.00142801,-0.00154834,-0.00167113,-0.00179606,-0.00192281,-0.00205107,-0.00218052,-0.00231086,-0.0024418,-0.00257304,-0.0027043,-0.00283529,-0.00296573,-0.00309535,-0.00322387,-0.00335104,-0.00347657,-0.00360021,-0.0037217,-0.00384078,-0.00395718,-0.00407065,-0.00418095,-0.00428781,-0.00439098,-0.00449023,-0.0045853,-0.00467596,-0.00476196,-0.00484308,-0.00491909,-0.00498976,-0.00505488,-0.00511425,-0.00516767,-0.00521494,-0.00525589,-0.00529035,-0.00531817,-0.0053392,-0.00535333,-0.00536043,-0.00536042,-0.00535322,-0.00533878,-0.00531705,-0.00528802,-0.0052517,-0.00520812,-0.00515732,-0.00509939,-0.00503441,-0.00496252,-0.00488387,-0.00479862,-0.00470698,-0.00460918,-0.00450545,-0.00439608,-0.00428137,-0.00416163,-0.00403721,-0.00390848,-0.00377581,-0.00363963,-0.00350034,-0.0033584,-0.00321424,-0.00306835,-0.0029212,-0.00277326,-0.00262505,-0.00247704,-0.00232974,-0.00218364,-0.00203923,-0.00189701,-0.00175745,-0.00162101,-0.00148814,-0.00135928,-0.00123483,-0.0011152,-0.00100073,-0.00089177,-0.000788613,-0.00069153,-0.000600748,-0.000516457,-0.000438803,-0.000367882,-0.000303746,-0.00024639,-0.000195755,-0.000151724,-0.000114117,-8.26891e-05,-5.7125e-05,-3.70378e-05,-2.19635e-05,-1.1357e-05,-4.58767e-06,-9.34641e-07,4.18418e-07,3.88692e-07,-0
-0,-2.72952e-06,-1.1574e-05,-2.70438e-05,-4.95175e-05,-7.92567e-05,-0.000116418,-0.000161067,-0.000213188,-0.000272698,-0.000339451,-0.000413253,-0.000493869,-0.000581027,-0.000674428,-0.00077375,-0.000878656,-0.000988794,-0.0011038,-0.00122332,-0.00134698,-0.0014744,-0.00160523,-0.0017391,-0.00187565,-0.00201452,-0.00215536,-0.00229784,-0.0024416,-0.00258632,-0.00273167,-0.00287733,-0.00302298,-0.00316831,-0.00331302,-0.00345679,-0.00359934,-0.00374036,-0.00387956,-0.00401665,-0.00415135,-0.00428336,-0.0044124,-0.00453819,-0.00466044,-0.00477889,-0.00489325,-0.00500326,-0.00510864,-0.00520912,-0.00530446,-0.00539438,-0.00547865,-0.00555701,-0.00562923,-0.00569508,-0.00575434,-0.00580681,-0.00585229,-0.0058906,-0.00592156,-0.00594502,-0.00596084,-0.0059689,-0.0059691,-0.00596135,-0.00594559,-0.00592179,-0.00588991,-0.00584998,-0.00580201,-0.00574607,-0.00568224,-0.00561061,-0.00553134,-0.00544458,-0.00535053,-0.00524939,-0.00514143,-0.0050269,-0.00490611,-0.00477939,-0.00464709,-0.00450958,-0.00436727,-0.00422058,-0.00406995,-0.00391586,-0.00375877,-0.0035992,-0.00343765,-0.00327464,-0.00311071,-0.00294641,-0.00278227,-0.00261884,-0.00245668,-0.00229631,-0.00213829,-0.00198312,-0.00183134,-0.00168342,-0.00153986,-0.0014011,-0.00126759,-0.00113971,-0.00101785,-0.000902332,-0.000793461,-0.000691493,-0.00059664,-0.000509069,-0.000428894,-0.000356178,-0.000290925,-0.00023308,-0.000182526,-0.000139078,-0.000102481,-7.24084e-05,-4.84538e-05,-3.01314e-05,-1.68702e-05,-8.00989e-06,-2.79671e-06,-3.78647e-07,1.99284e-07,-0