0,0,0,0,0,0,0,0,0,0,0,0,0,0,0,0,0,0,0,0,0,0,0,0,0,0,0,0,0,0,0,0,0,0,0,0,0,0,0,0,0,0,0,0,0,0,0,0,0,0,0,0,0,0,0,0,0,0,0,0,0,0,0,0,0,0,0,0,0,0,0,0,0,0,0,0,0,0,0,0,0,0,0,0,0,0,0,0,0,0,0,0,0,0,0,0,0,0,0,0,0,0,0,0,0,0,0,0,0,0,0,0,0,0,0,0,0,0,0,0,0,0,0,0,0,0,0,0
0,6.5677e-06,2.07878e-05,3.69694e-05,5.06463e-05,5.86989e-05,5.90947e-05,5.05971e-05,3.25321e-05,4.61955e-06,-3.3145e-05,-8.05742e-05,-0.000137347,-0.000203051,-0.000277215,-0.000359326,-0.000448853,-0.000545254,-0.000647987,-0.000756516,-0.000870317,-0.000988879,-0.00111171,-0.00123833,-0.00136829,-0.00150116,-0.0016365,-0.00177392,-0.00191304,-0.00205348,-0.0021949,-0.00233696,-0.00247931,-0.00262165,-0.00276367,-0.00290505,-0.00304551,-0.00318475,-0.00332249,-0.00345844,-0.00359231,-0.00372382,-0.00385269,-0.00397863,-0.00410137,-0.00422062,-0.0043361,-0.00444751,-0.00455459,-0.00465703,-0.00475456,-0.00484689,-0.00493375,-0.00501485,-0.00508993,-0.00515872,-0.00522095,-0.00527638,-0.00532477,-0.00536589,-0.00539951,-0.00542544,-0.00544349,-0.0054535,-0.00545531,-0.00544881,-0.00543388,-0.00541045,-0.00537848,-0.00533793,-0.00528882,-0.00523117,-0.00516507,-0.00509061,-0.00500792,-0.00491718,-0.0048186,-0.0047124,-0.00459888,-0.00447833,-0.00435109,-0.00421756,-0.00407814,-0.00393327,-0.00378343,-0.00362912,-0.00347087,-0.00330924,-0.0031448,-0.00297816,-0.00280992,-0.00264072,-0.0024712,-0.00230201,-0.00213381,-0.00196726,-0.001803,-0.0016417,-0.001484,-0.00133052,-0.00118189,-0.00103868,-0.00090148,-0.000770828,-0.000647237,-0.000531187,-0.000423118,-0.000323428,-0.00023247,-0.000150545,-7.79007e-05,-1.4721e-05,3.88758e-05,8.28465e-05,0.000117232,0.00014217,0.000157907,0.00016482,0.000163438,0.00015448,0.000138891,0.000117905,9.31144e-05,6.65585e-05,4.08076e-05,1.8978e-05,4.48292e-06,0
0,1.06856e-05,3.04668e-05,5.08789e-05,6.54948e-05,6.9571e-05,5.9791e-05,3.39838e-05,-9.13852e-06,-7.02002e-05,-0.000149334,-0.000246314,-0.00036065,-0.00049167,-0.00063857,-0.000800457,-0.000976386,-0.00116538,-0.00136645,-0.00157861,-0.00180089,-0.00203233,-0.002272,-0.00251901,-0.00277248,-0.00303157,-0.00329549,-0.00356346,-0.00383473,-0.00410858,-0.00438433,-0.0046613,-0.00493885,-0.00521635,-0.00549319,-0.00576878,-0.00604252,-0.00631384,-0.00658217,-0.00684695,-0.00710761,-0.00736361,-0.00761438,-0.00785937,-0.00809802,-0.00832979,-0.00855411,-0.00877044,-0.00897821,-0.00917688,-0.0093659,-0.00954472,-0.00971281,-0.00986962,-0.0100146,-0.0101474,-0.0102673,-0.010374,-0.0104669,-0.0105457,-0.0106099,-0.0106591,-0.010693,-0.0107114,-0.0107138,-0.0107001,-0.0106702,-0.0106238,-0.0105609,-0.0104814,-0.0103854,-0.0102729,-0.0101441,-0.00999928,-0.00983859,-0.00966239,-0.00947111,-0.00926519,-0.00904519,-0.00881168,-0.00856535,-0.00830692,-0.00803718,-0.00775698,-0.00746723,-0.00716889,-0.00686299,-0.00655057,-0.00623275,-0.00591066,-0.00558548,-0.00525842,-0.00493069,-0.00460353,-0.00427821,-0.00395595,-0.00363803,-0.00332566,-0.00302008,-0.00272248,-0.00243402,-0.00215584,-0.00188901,-0.00163457,-0.00139348,-0.00116664,-0.000954898,-0.000758986,-0.000579563,-0.000417188,-0.000272311,-0.000145261,-3.62382e-05,5.47056e-05,0.00012768,0.00018298,0.00022111,0.000242817,0.00024913,0.000241414,0.000221427,0.000191401,0.00015412,0.000113006,7.21571e-05,3.62968e-05,1.05311e-05,0
0,1.12338e-05,3.0053e-05,4.64083e-05,5.28889e-05,4.39647e-05,1.56351e-05,-3.48374e-05,-0.000109166,-0.000208253,-0.000332369,-0.000481306,-0.000654489,-0.000851077,-0.00107003,-0.00131018,-0.00157025,-0.00184892,-0.00214484,-0.00245663,-0.00278295,-0.00312246,-0.00347384,-0.00383582,-0.00420715,-0.00458664,-0.00497313,-0.00536549,-0.00576264,-0.00616355,-0.00656719,-0.0069726,-0.00737881,-0.00778491,-0.00819,-0.00859319,-0.00899361,-0.00939043,-0.00978279,-0.0101699,-0.0105508,-0.0109248,-0.0112911,-0.0116488,-0.0119971,-0.0123352,-0.0126624,-0.0129777,-0.0132803,-0.0135696,-0.0138446,-0.0141046,-0.0143489,-0.0145765,-0.0147869,-0.0149792,-0.0151528,-0.015307,-0.0154411,-0.0155545,-0.0156466,-0.0157169,-0.0157649,-0.0157901,-0.0157923,-0.015771,-0.0157261,-0.0156572,-0.0155644,-0.0154477,-0.0153069,-0.0151423,-0.0149542,-0.0147427,-0.0145083,-0.0142516,-0.013973,-0.0136734,-0.0133533,-0.0130138,-0.0126558,-0.0122803,-0.0118885,-0.0114816,-0.0110609,-0.0106278,-0.0101838,-0.0097303,-0.009269,-0.0088015,-0.00832947,-0.00785465,-0.00737878,-0.00690363,-0.00643099,-0.00596264,-0.00550037,-0.00504596,-0.00460113,-0.0041676,-0.00374703,-0.00334102,-0.00295112,-0.00257878,-0.0022254,-0.00189225,-0.00158049,-0.00129119,-0.00102527,-0.000783503,-0.00056651,-0.00037474,-0.000208449,-6.76821e-05,4.77481e-05,0.000138291,0.000204689,0.000248022,0.000269747,0.000271761,0.000256463,0.00022682,0.000186446,0.000139647,9.14562e-05,4.76116e-05,1.45842e-05,0
0,9.18986e-06,2.20529e-05,2.81226e-05,1.9636e-05,-9.23166e-06,-6.27633e-05,-0.000143962,-0.000254766,-0.000396242,-0.000568752,-0.000772101,-0.00100566,-0.00126847,-0.00155932,-0.00187681,-0.00221944,-0.00258558,-0.00297358,-0.00338177,-0.00380845,-0.00425197,-0.00471067,-0.00518294,-0.00566722,-0.00616196,-0.00666569,-0.00717697,-0.0076944,-0.00821664,-0.00874237,-0.00927033,-0.00979927,-0.010328,-0.0108553,-0.0113801,-0.0119012,-0.0124174,-0.0129278,-0.0134312,-0.0139265,-0.0144126,-0.0148885,-0.0153531,-0.0158054,-0.0162442,-0.0166686,-0.0170775,-0.0174698,-0.0178446,-0.0182007,-0.0185371,-0.0188529,-0.0191471,-0.0194187,-0.0196668,-0.0198905,-0.0200889,-0.0202612,-0.0204065,-0.0205243,-0.0206137,-0.0206743,-0.0207054,-0.0207066,-0.0206774,-0.0206177,-0.0205271,-0.0204056,-0.0202531,-0.0200697,-0.0198556,-0.0196111,-0.0193367,-0.0190327,-0.0186999,-0.0183391,-0.0179512,-0.017537,-0.0170978,-0.0166348,-0.0161494,-0.015643,-0.0151172,-0.0145737,-0.0140141,-0.0134405,-0.0128547,-0.0122588,-0.0116548,-0.011045,-0.0104314,-0.00981626,-0.00920193,-0.00859064,-0.00798465,-0.00738625,-0.00679767,-0.00622114,-0.00565881,-0.0051128,-0.00458514,-0.0040778,-0.00359261,-0.00313134,-0.0026956,-0.00228687,-0.00190646,-0.00155555,-0.0012351,-0.000945883,-0.000688437,-0.00046307,-0.000269817,-0.000108418,2.17108e-05,0.000121516,0.000192349,0.00023601,0.000254809,0.000251613,0.000229915,0.000193882,0.000148407,9.91508e-05,5.26232e-05,1.64272e-05,0
0,5.50477e-06,8.80227e-06,-9.41783e-08,-2.87726e-05,-8.29891e-05,-0.000167019,-0.0002839,-0.00043562,-0.000623288,-0.000847286,-0.0011074,-0.00140294,-0.00173284,-0.00209576,-0.00249012,-0.0029142,-0.00336616,-0.00384409,-0.00434604,-0.00487005,-0.00541416,-0.00597644,-0.00655497,-0.00714789,-0.00775338,-0.00836965,-0.00899497,-0.00962767,-0.0102661,-0.0109087,-0.0115539,-0.0122002,-0.0128461,-0.0134902,-0.014131,-0.0147672,-0.0153975,-0.0160203,-0.0166345,-0.0172387,-0.0178316,-0.0184118,-0.018978,-0.0195291,-0.0200636,-0.0205802,-0.0210778,-0.021555,-0.0220106,-0.0224434,-0.022852,-0.0232353,-0.0235922,-0.0239214,-0.0242219,-0.0244925,-0.0247323,-0.0249402,-0.0251153,-0.0252568,-0.0253638,-0.0254357,-0.0254718,-0.0254716,-0.0254345,-0.0253603,-0.0252488,-0.0250997,-0.0249132,-0.0246892,-0.0244281,-0.0241302,-0.0237961,-0.0234264,-0.0230218,-0.0225834,-0.0221122,-0.0216093,-0.0210763,-0.0205145,-0.0199256,-0.0193113,-0.0186736,-0.0180145,-0.017336,-0.0166405,-0.0159302,-0.0152075,-0.014475,-0.0137353,-0.0129908,-0.0122444,-0.0114986,-0.0107563,-0.0100201,-0.00929268,-0.00857681,-0.0078751,-0.00719014,-0.00652443,-0.00588042,-0.00526042,-0.00466665,-0.00410118,-0.00356593,-0.00306268,-0.00259297,-0.00215819,-0.00175947,-0.00139773,-0.00107358,-0.000787395,-0.000539189,-0.000328653,-0.000155097,-1.74142e-05,8.59542e-05,0.000157068,0.000198535,0.000213556,0.00020598,0.000180351,0.000141958,9.69124e-05,5.22999e-05,1.6518e-05,0
0,8.28326e-07,-7.92565e-06,-3.52125e-05,-8.80359e-05,-0.000171789,-0.000290511,-0.000447087,-0.000643408,-0.000880512,-0.00115872,-0.00147775,-0.00183683,-0.00223479,-0.00267015,-0.00314119,-0.00364599,-0.00418253,-0.00474869,-0.00534227,-0.00596109,-0.00660292,-0.00726559,-0.0079469,-0.00864474,-0.00935701,-0.0100817,-0.0108167,-0.0115602,-0.0123102,-0.013065,-0.0138226,-0.0145814,-0.0153396,-0.0160954,-0.0168474,-0.0175937,-0.0183329,-0.0190633,-0.0197833,-0.0204915,-0.0211861,-0.0218658,-0.0225289,-0.023174,-0.0237995,-0.024404,-0.0249859,-0.0255437,-0.0260761,-0.0265815,-0.0270585,-0.0275058,-0.0279219,-0.0283056,-0.0286555,-0.0289703,-0.029249,-0.0294904,-0.0296934,-0.0298571,-0.0299804,-0.0300627,-0.0301032,-0.0301013,-0.0300565,-0.0299684,-0.0298367,-0.0296614,-0.0294424,-0.0291799,-0.0288742,-0.0285258,-0.0281352,-0.0277033,-0.0272309,-0.0267191,-0.0261693,-0.0255827,-0.0249611,-0.0243061,-0.0236196,-0.0229036,-0.0221604,-0.0213922,-0.0206015,-0.0197908,-0.0189629,-0.0181205,-0.0172665,-0.0164039,-0.0155356,-0.0146647,-0.0137943,-0.0129276,-0.0120676,-0.0112174,-0.0103802,-0.00955898,-0.00875665,-0.00797615,-0.00722025,-0.00649163,-0.00579282,-0.00512619,-0.00449396,-0.00389812,-0.00334048,-0.00282261,-0.00234579,-0.00191107,-0.00151917,-0.00117048,-0.000865049,-0.000602528,-0.000382154,-0.000202709,-6.24858e-05,4.07551e-05,0.000109826,0.000148152,0.000159818,0.000149615,0.000123095,8.66762e-05,4.7814e-05,1.5334e-05,0
0,-4.42846e-06,-2.68807e-05,-7.49828e-05,-0.000154873,-0.000271352,-0.000428039,-0.000627513,-0.00087144,-0.00116069,-0.00149544,-0.00187529,-0.00229935,-0.00276632,-0.00327459,-0.00382229,-0.00440734,-0.00502755,-0.00568058,-0.00636407,-0.0070756,-0.00781274,-0.00857306,-0.00935416,-0.0101537,-0.0109693,-0.0117986,-0.0126396,-0.0134899,-0.0143474,-0.0152101,-0.0160758,-0.0169427,-0.0178087,-0.0186719,-0.0195304,-0.0203824,-0.0212259,-0.0220593,-0.0228807,-0.0236883,-0.0244803,-0.025255,-0.0260107,-0.0267456,-0.027458,-0.0281462,-0.0288085,-0.0294432,-0.0300486,-0.0306232,-0.0311653,-0.0316733,-0.0321458,-0.0325811,-0.0329779,-0.0333347,-0.0336503,-0.0339233,-0.0341527,-0.0343372,-0.034476,-0.034568,-0.0346126,-0.034609,-0.0345567,-0.0344553,-0.0343046,-0.0341043,-0.0338546,-0.0335556,-0.0332077,-0.0328114,-0.0323674,-0.0318766,-0.03134,-0.0307589,-0.0301348,-0.0294691,-0.0287637,-0.0280206,-0.0272418,-0.0264296,-0.0255865,-0.0247151,-0.0238181,-0.0228985,-0.0219592,-0.0210033,-0.020034,-0.0190547,-0.0180686,-0.0170794,-0.0160903,-0.0151049,-0.0141266,-0.0131591,-0.0122056,-0.0112696,-0.0103544,-0.00946319,-0.00859916,-0.00776526,-0.00696431,-0.00619899,-0.00547174,-0.00478483,-0.00414024,-0.00353974,-0.00298478,-0.00247651,-0.00201575,-0.00160296,-0.00123821,-0.000921139,-0.000650951,-0.000426363,-0.000245573,-0.00010623,-5.39501e-06,6.04967e-05,9.56716e-05,0.000105066,9.43911e-05,7.02292e-05,4.02046e-05,1.32504e-05,0
0,-1.00088e-05,-4.72059e-05,-0.000117778,-0.000226829,-0.000378403,-0.000575554,-0.00082043,-0.00111437,-0.00145797,-0.00185121,-0.0022935,-0.00278381,-0.00332067,-0.00390234,-0.00452678,-0.00519178,-0.00589494,-0.0066338,-0.00740577,-0.00820827,-0.00903865,-0.00989429,-0.0107726,-0.0116709,-0.0125868,-0.0135177,-0.0144611,-0.0154147,-0.0163761,-0.0173429,-0.0183129,-0.0192839,-0.0202537,-0.0212202,-0.0221812,-0.0231346,-0.0240785,-0.0250108,-0.0259294,-0.0268324,-0.0277178,-0.0285837,-0.029428,-0.0302489,-0.0310445,-0.0318128,-0.032552,-0.0332602,-0.0339355,-0.0345762,-0.0351804,-0.0357465,-0.0362727,-0.0367573,-0.0371989,-0.0375957,-0.0379465,-0.0382498,-0.0385043,-0.0387088,-0.0388623,-0.0389637,-0.0390122,-0.0390072,-0.0389479,-0.038834,-0.0386652,-0.0384414,-0.0381627,-0.0378291,-0.0374413,-0.0369998,-0.0365053,-0.0359588,-0.0353615,-0.0347149,-0.0340204,-0.0332798,-0.0324951,-0.0316684,-0.0308022,-0.0298988,-0.028961,-0.0279916,-0.0269937,-0.0259705,-0.0249252,-0.0238612,-0.0227821,-0.0216915,-0.0205931,-0.0194907,-0.018388,-0.0172889,-0.0161972,-0.0151167,-0.0140513,-0.0130045,-0.0119802,-0.0109818,-0.0100127,-0.0090762,-0.00817546,-0.00731336,-0.00649262,-0.0057157,-0.00498481,-0.00430189,-0.00366854,-0.00308604,-0.00255531,-0.00207687,-0.00165086,-0.00127692,-0.000954269,-0.000681585,-0.000457028,-0.000278192,-0.000142073,-4.50421e-05,1.7196e-05,4.96415e-05,5.80614e-05,4.90785e-05,3.03065e-05,1.05416e-05,0
0,-1.57511e-05,-6.8319e-05,-0.000162438,-0.000302092,-0.000490462,-0.000729928,-0.00102211,-0.00136792,-0.00176763,-0.00222094,-0.00272703,-0.00328465,-0.00389218,-0.00454769,-0.00524899,-0.00599371,-0.00677929,-0.00760309,-0.00846237,-0.00935435,-0.0102762,-0.0112252,-0.0121984,-0.0131931,-0.0142066,-0.0152362,-0.0162791,-0.0173328,-0.0183947,-0.0194623,-0.0205331,-0.0216047,-0.0226747,-0.0237408,-0.0248006,-0.0258519,-0.0268924,-0.0279199,-0.0289321,-0.0299269,-0.0309021,-0.0318555,-0.0327851,-0.0336887,-0.0345641,-0.0354094,-0.0362224,-0.0370011,-0.0377435,-0.0384476,-0.0391115,-0.0397333,-0.0403111,-0.0408431,-0.0413276,-0.0417629,-0.0421475,-0.0424799,-0.0427586,-0.0429825,-0.0431503,-0.0432609,-0.0433136,-0.0433074,-0.0432418,-0.0431164,-0.0429308,-0.0426849,-0.0423789,-0.0420129,-0.0415874,-0.0411031,-0.0405609,-0.0399618,-0.0393072,-0.0385984,-0.0378372,-0.0370256,-0.0361657,-0.0352598,-0.0343104,-0.0333203,-0.0322924,-0.0312298,-0.0301357,-0.0290137,-0.0278671,-0.0266999,-0.0255157,-0.0243186,-0.0231124,-0.0219013,-0.0206894,-0.0194808,-0.0182797,-0.0170902,-0.0159164,-0.0147623,-0.0136319,-0.0125289,-0.0114573,-0.0104204,-0.00942162,-0.0084642,-0.00755104,-0.00668484,-0.00586799,-0.0051026,-0.00439043,-0.00373291,-0.00313106,-0.0025855,-0.00209642,-0.00166351,-0.00128602,-0.000962652,-0.000691557,-0.000470326,-0.000295946,-0.000164779,-7.25274e-05,-1.4201e-05,1.59372e-05,2.44386e-05,1.87647e-05,7.40558e-06,0
0,-2.15529e-05,-8.98252e-05,-0.000208139,-0.000379334,-0.000605663,-0.000888762,-0.00122965,-0.00162874,-0.0020859,-0.00260051,-0.00317146,-0.00379726,-0.00447609,-0.00520582,-0.00598409,-0.00680834,-0.00767589,-0.0085839,-0.00952948,-0.0105097,-0.0115215,-0.0125621,-0.0136283,-0.0147172,-0.015826,-0.0169517,-0.0180914,-0.0192424,-0.020402,-0.0215673,-0.0227358,-0.0239049,-0.0250719,-0.0262343,-0.0273897,-0.0285355,-0.0296692,-0.0307886,-0.0318911,-0.0329745,-0.0340363,-0.0350742,-0.036086,-0.0370692,-0.0380216,-0.0389411,-0.0398252,-0.0406719,-0.041479,-0.0422442,-0.0429656,-0.0436411,-0.0442687,-0.0448464,-0.0453725,-0.0458451,-0.0462625,-0.0466232,-0.0469256,-0.0471684,-0.0473504,-0.0474704,-0.0475275,-0.0475209,-0.0474498,-0.0473139,-0.0471128,-0.0468464,-0.0465148,-0.0461184,-0.0456575,-0.045133,-0.0445458,-0.043897,-0.043188,-0.0424204,-0.041596,-0.040717,-0.0397855,-0.0388042,-0.0377757,-0.036703,-0.0355891,-0.0344374,-0.0332514,-0.0320348,-0.0307913,-0.029525,-0.0282399,-0.0269402,-0.0256303,-0.0243144,-0.0229969,-0.0216824,-0.0203752,-0.0190798,-0.0178006,-0.0165418,-0.0153078,-0.0141026,-0.0129303,-0.0117946,-0.0106992,-0.00964742,-0.00864254,-0.00768741,-0.00678465,-0.00593652,-0.00514497,-0.00441154,-0.0037374,-0.00312326,-0.00256939,-0.00207559,-0.00164114,-0.00126479,-0.000944745,-0.000678628,-0.000463462,-0.000295652,-0.000170954,-8.44491e-05,-3.05068e-05,-2.73624e-06,6.06819e-06,3.98463e-06,0
0,-2.73485e-05,-0.000111457,-0.000254305,-0.00045759,-0.000722617,-0.00105023,-0.00144078,-0.00189416,-0.00240976,-0.00298658,-0.00362319,-0.00431783,-0.00506843,-0.00587266,-0.00672795,-0.00763159,-0.00858069,-0.00957227,-0.0106033,-0.0116706,-0.0127711,-0.0139017,-0.0150592,-0.0162404,-0.0174424,-0.018662,-0.0198962,-0.021142,-0.0223966,-0.023657,-0.0249205,-0.0261841,-0.0274452,-0.0287011,-0.029949,-0.0311864,-0.0324105,-0.0336188,-0.0348088,-0.0359778,-0.0371234,-0.038243,-0.0393342,-0.0403945,-0.0414214,-0.0424126,-0.0433656,-0.044278,-0.0451477,-0.0459722,-0.0467493,-0.0474769,-0.0481529,-0.0487751,-0.0493416,-0.0498505,-0.0503001,-0.0506886,-0.0510144,-0.0512761,-0.0514724,-0.0516021,-0.0516642,-0.0516578,-0.0515823,-0.0514371,-0.0512219,-0.0509366,-0.0505814,-0.0501566,-0.0496626,-0.0491003,-0.0484707,-0.0477749,-0.0470145,-0.0461912,-0.0453068,-0.0443637,-0.0433643,-0.0423111,-0.0412071,-0.0400554,-0.0388593,-0.0376222,-0.036348,-0.0350406,-0.0337038,-0.0323421,-0.0309596,-0.0295609,-0.0281506,-0.0267331,-0.0253133,-0.0238957,-0.0224853,-0.0210866,-0.0197043,-0.018343,-0.0170073,-0.0157015,-0.0144299,-0.0131965,-0.0120053,-0.0108598,-0.00976356,-0.00871958,-0.00773068,-0.00679934,-0.00592766,-0.00511734,-0.00436968,-0.00368553,-0.00306526,-0.00250877,-0.00201543,-0.00158406,-0.00121296,-0.000899804,-0.000641709,-0.000435162,-0.000276019,-0.000159489,-8.01066e-05,-3.17092e-05,-7.41637e-06,3.81224e-07,0
0,-3.30964e-05,-0.000133035,-0.000300527,-0.000536164,-0.000840294,-0.00121294,-0.00165378,-0.0021621,-0.00273681,-0.00337646,-0.0040793,-0.00484323,-0.00566593,-0.00654482,-0.00747714,-0.00845995,-0.00949022,-0.0105648,-0.0116805,-0.0128339,-0.0140219,-0.0152412,-0.0164884,-0.0177603,-0.0190536,-0.0203651,-0.0216916,-0.0230301,-0.0243774,-0.0257305,-0.0270864,-0.0284422,-0.0297948,-0.0311415,-0.0324794,-0.0338056,-0.0351175,-0.0364122,-0.037687,-0.0389391,-0.040166,-0.0413649,-0.0425332,-0.0436683,-0.0447675,-0.0458283,-0.0468482,-0.0478246,-0.0487552,-0.0496373,-0.0504688,-0.0512473,-0.0519704,-0.0526362,-0.0532424,-0.0537871,-0.0542684,-0.0546844,-0.0550336,-0.0553144,-0.0555254,-0.0556653,-0.0557332,-0.055728,-0.0556491,-0.055496,-0.0552683,-0.054966,-0.054589,-0.0541378,-0.053613,-0.0530153,-0.0523458,-0.0516058,-0.0507968,-0.0499207,-0.0489795,-0.0479754,-0.0469111,-0.0457894,-0.0446132,-0.0433858,-0.0421108,-0.0407918,-0.0394327,-0.0380377,-0.0366109,-0.0351569,-0.0336801,-0.0321854,-0.0306774,-0.0291611,-0.0276414,-0.0261233,-0.0246117,-0.0231117,-0.0216282,-0.0201661,-0.01873,-0.0173248,-0.0159549,-0.0146246,-0.013338,-0.0120991,-0.0109114,-0.00977836,-0.00870288,-0.00768764,-0.00673494,-0.00584664,-0.0050242,-0.00426861,-0.00358038,-0.00295951,-0.0024055,-0.00191728,-0.00149324,-0.00113119,-0.000828339,-0.000581303,-0.000386081,-0.000238051,-0.00013196,-6.19204e-05,-2.1417e-05,-3.33117e-06,0
0,-3.87702e-05,-0.000154438,-0.000346524,-0.000614554,-0.000957934,-0.00137587,-0.00186731,-0.00243094,-0.00306515,-0.00376803,-0.00453742,-0.00537091,-0.00626587,-0.00721947,-0.00822872,-0.00929049,-0.0104015,-0.0115585,-0.0127581,-0.0139968,-0.0152713,-0.016578,-0.0179136,-0.0192746,-0.0206576,-0.0220592,-0.0234763,-0.0249054,-0.0263434,-0.027787,-0.0292332,-0.0306787,-0.0321206,-0.0335558,-0.0349813,-0.0363942,-0.0377914,-0.0391702,-0.0405275,-0.0418606,-0.0431666,-0.0444427,-0.0456861,-0.046894,-0.0480637,-0.0491924,-0.0502776,-0.0513164,-0.0523064,-0.053245,-0.0541297,-0.0549581,-0.0557277,-0.0564364,-0.0570818,-0.057662,-0.0581748,-0.0586185,-0.0589913,-0.0592916,-0.0595178,-0.0596688,-0.0597434,-0.0597406,-0.0596597,-0.0595002,-0.0592616,-0.058944,-0.0585473,-0.0580719,-0.0575184,-0.0568878,-0.0561809,-0.0553993,-0.0545445,-0.0536184,-0.0526231,-0.0515611,-0.0504349,-0.0492476,-0.0480022,-0.0467023,-0.0453514,-0.0439534,-0.0425124,-0.0410326,-0.0395186,-0.037975,-0.0364066,-0.0348183,-0.0332151,-0.0316022,-0.0299847,-0.0283679,-0.0267569,-0.0251572,-0.0235738,-0.0220119,-0.0204765,-0.0189726,-0.0175049,-0.0160779,-0.0146961,-0.0133636,-0.0120843,-0.0108616,-0.00969884,-0.00859883,-0.00756407,-0.00659661,-0.00569807,-0.00486959,-0.00411185,-0.00342499,-0.00280865,-0.0022619,-0.00178326,-0.00137067,-0.0010215,-0.0007325,-0.000499859,-0.000319156,-0.000185381,-9.29514e-05,-3.57349e-05,-7.10046e-06,0
0,-4.43541e-05,-0.000175585,-0.000392101,-0.000692404,-0.00107498,-0.00153822,-0.00208036,-0.00269943,-0.00339329,-0.00415955,-0.00499564,-0.00589878,-0.00686602,-0.00789426,-0.00898027,-0.0101207,-0.0113121,-0.012551,-0.0138338,-0.0151569,-0.0165168,-0.0179099,-0.0193326,-0.0207813,-0.0222525,-0.0237428,-0.0252486,-0.0267666,-0.0282934,-0.0298257,-0.0313601,-0.0328935,-0.0344226,-0.0359443,-0.0374554,-0.0389527,-0.0404334,-0.0418942,-0.0433321,-0.0447442,-0.0461275,-0.0474789,-0.0487957,-0.0500748,-0.0513134,-0.0525086,-0.0536577,-0.0547578,-0.0558062,-0.0568003,-0.0577374,-0.058615,-0.0594306,-0.0601818,-0.0608663,-0.0614819,-0.0620265,-0.0624981,-0.062895,-0.0632154,-0.0634578,-0.0636208,-0.0637032,-0.0637042,-0.0636228,-0.0634584,-0.0632108,-0.0628797,-0.0624653,-0.0619679,-0.0613882,-0.0607269,-0.0599852,-0.0591646,-0.0582666,-0.0572932,-0.0562466,-0.0551293,-0.0539442,-0.0526941,-0.0513824,-0.0500126,-0.0485885,-0.0471142,-0.0455938,-0.0440319,-0.0424332,-0.0408023,-0.0391444,-0.0374646,-0.0357681,-0.0340603,-0.0323467,-0.0306326,-0.0289236,-0.0272252,-0.0255428,-0.0238819,-0.0222476,-0.0206453,-0.0190799,-0.0175563,-0.0160791,-0.0146526,-0.0132809,-0.0119679,-0.0107169,-0.00953107,-0.00841306,-0.00736513,-0.00638908,-0.00548625,-0.00465747,-0.00390306,-0.00322282,-0.00261598,-0.00208121,-0.00161662,-0.00121975,-0.000887548,-0.000616383,-0.000402068,-0.000239861,-0.000124497,-5.02283e-05,-1.08905e-05,0
0,-4.98387e-05,-0.000196426,-0.000437125,-0.000769462,-0.00119103,-0.00169942,-0.00229214,-0.0029666,-0.00372007,-0.00454968,-0.00545241,-0.00642513,-0.00746453,-0.00856723,-0.00972973,-0.0109484,-0.0122197,-0.0135399,-0.0149053,-0.016312,-0.0177565,-0.0192349,-0.0207436,-0.0222788,-0.0238369,-0.0254143,-0.0270074,-0.0286127,-0.0302267,-0.0318458,-0.0334668,-0.0350862,-0.0367007,-0.0383071,-0.0399019,-0.041482,-0.0430442,-0.0445853,-0.0461022,-0.0475916,-0.0490505,-0.0504758,-0.0518645,-0.0532134,-0.0545197,-0.0557803,-0.0569922,-0.0581526,-0.0592587,-0.0603076,-0.0612967,-0.0622231,-0.0630844,-0.0638781,-0.0646017,-0.065253,-0.0658298,-0.0663299,-0.0667516,-0.067093,-0.0673525,-0.0675288,-0.0676205,-0.0676266,-0.0675463,-0.0673789,-0.0671241,-0.0667817,-0.0663517,-0.0658345,-0.0652308,-0.0645414,-0.0637674,-0.0629102,-0.0619716,-0.0609536,-0.0598584,-0.0586886,-0.057447,-0.0561367,-0.0547613,-0.0533242,-0.0518294,-0.0502812,-0.0486838,-0.047042,-0.0453605,-0.0436444,-0.0418989,-0.0401293,-0.0383411,-0.0365398,-0.0347312,-0.0329209,-0.0311146,-0.0293182,-0.0275374,-0.0257777,-0.0240448,-0.0223441,-0.0206808,-0.0190601,-0.0174868,-0.0159656,-0.0145008,-0.0130964,-0.0117561,-0.0104832,-0.00928058,-0.00815076,-0.00709572,-0.00611701,-0.00521564,-0.00439214,-0.00364647,-0.00297805,-0.00238574,-0.00186783,-0.00142206,-0.00104556,-0.000734941,-0.000486255,-0.000295038,-0.000156344,-6.47995e-05,-1.46774e-05,0
0,-5.52193e-05,-0.000216929,-0.000481506,-0.000845552,-0.0013058,-0.00185905,-0.00250209,-0.0032317,-0.00404457,-0.00493733,-0.00590652,-0.00694859,-0.0080599,-0.00923676,-0.0104754,-0.011772,-0.0131227,-0.0145235,-0.0159707,-0.0174604,-0.0189885,-0.0205513,-0.0221449,-0.0237654,-0.0254092,-0.0270725,-0.0287515,-0.0304426,-0.0321422,-0.0338468,-0.0355527,-0.0372566,-0.0389549,-0.0406443,-0.0423213,-0.0439825,-0.0456248,-0.0472447,-0.0488389,-0.0504043,-0.0519375,-0.0534354,-0.0548948,-0.0563125,-0.0576855,-0.0590105,-0.0602846,-0.0615047,-0.0626679,-0.0637712,-0.0648119,-0.0657871,-0.0666942,-0.0675306,-0.0682936,-0.0689811,-0.0695906,-0.0701201,-0.0705675,-0.070931,-0.071209,-0.0713998,-0.0715023,-0.0715153,-0.0714379,-0.0712694,-0.0710094,-0.0706578,-0.0702145,-0.0696799,-0.0690545,-0.0683394,-0.0675355,-0.0666444,-0.0656678,-0.0646077,-0.0634664,-0.0622466,-0.0609511,-0.0595832,-0.0581464,-0.0566444,-0.0550813,-0.0534613,-0.051789,-0.0500691,-0.0483068,-0.0465071,-0.0446755,-0.0428174,-0.0409386,-0.0390449,-0.0371422,-0.0352364,-0.0333334,-0.0314394,-0.0295602,-0.0277018,-0.0258699,-0.0240704,-0.0223087,-0.0205902,-0.01892,-0.0173031,-0.0157439,-0.0142469,-0.012816,-0.0114546,-0.0101659,-0.00895262,-0.00781703,-0.00676084,-0.00578531,-0.00489115,-0.00407855,-0.00334711,-0.00269592,-0.00212346,-0.00162766,-0.00120591,-0.00085504,-0.000571352,-0.000350665,-0.00018835,-7.93858e-05,-1.84463e-05,0
0,-6.0494e-05,-0.000237073,-0.000525188,-0.000920554,-0.00141908,-0.00201678,-0.00270976,-0.00349415,-0.00436608,-0.00532165,-0.00635696,-0.00746803,-0.00865089,-0.00990151,-0.0112158,-0.0125898,-0.0140193,-0.0155003,-0.0170286,-0.0186003,-0.0202113,-0.0218575,-0.023535,-0.0252398,-0.0269681,-0.028716,-0.0304797,-0.0322553,-0.0340393,-0.0358278,-0.0376174,-0.0394043,-0.041185,-0.042956,-0.0447137,-0.0464548,-0.0481757,-0.0498731,-0.0515435,-0.0531836,-0.0547901,-0.0563595,-0.0578887,-0.0593744,-0.0608132,-0.062202,-0.0635377,-0.0648171,-0.0660371,-0.0671948,-0.0682871,-0.0693113,-0.0702644,-0.0711439,-0.071947,-0.0726714,-0.0733146,-0.0738744,-0.0743487,-0.0747356,-0.0750334,-0.0752405,-0.0753554,-0.0753771,-0.0753045,-0.075137,-0.074874,-0.0745154,-0.0740611,-0.0735114,-0.0728669,-0.0721286,-0.0712974,-0.0703749,-0.0693628,-0.0682631,-0.0670783,-0.0658109,-0.0644641,-0.0630409,-0.061545,-0.0599803,-0.0583508,-0.056661,-0.0549156,-0.0531195,-0.0512779,-0.049396,-0.0474795,-0.0455341,-0.0435657,-0.0415803,-0.039584,-0.037583,-0.0355835,-0.0335918,-0.031614,-0.0296565,-0.0277252,-0.0258261,-0.0239651,-0.0221478,-0.0203797,-0.0186657,-0.017011,-0.0154199,-0.0138967,-0.0124452,-0.0110688,-0.00977039,-0.00855254,-0.00741721,-0.00636588,-0.00539948,-0.00451843,-0.00372256,-0.00301116,-0.00238296,-0.00183611,-0.00136822,-0.000976374,-0.000657133,-0.000406594,-0.000220431,-9.39521e-05,-2.21899e-05,0
0,-6.56626e-05,-0.00025685,-0.000568134,-0.000994386,-0.00153071,-0.00217239,-0.00291483,-0.00375353,-0.00468405,-0.00570197,-0.00680293,-0.00798255,-0.00923648,-0.0105604,-0.0119498,-0.0134006,-0.0149083,-0.0164687,-0.0180775,-0.0197304,-0.0214234,-0.0231521,-0.0249126,-0.0267007,-0.0285124,-0.0303438,-0.032191,-0.03405,-0.035917,-0.0377884,-0.0396602,-0.0415289,-0.0433907,-0.0452421,-0.0470794,-0.048899,-0.0506975,-0.0524713,-0.0542168,-0.0559307,-0.0576095,-0.0592497,-0.060848,-0.0624009,-0.0639051,-0.0653574,-0.0667544,-0.0680929,-0.0693697,-0.0705818,-0.071726,-0.0727994,-0.0737991,-0.0747223,-0.0755663,-0.0763285,-0.0770065,-0.0775978,-0.0781005,-0.0785123,-0.0788316,-0.0790566,-0.0791859,-0.0792183,-0.0791527,-0.0789883,-0.0787246,-0.0783614,-0.0778985,-0.0773362,-0.0766751,-0.0759161,-0.0750601,-0.0741088,-0.0730637,-0.0719271,-0.0707012,-0.0693887,-0.0679928,-0.0665166,-0.0649638,-0.0633384,-0.0616446,-0.0598869,-0.0580701,-0.0561992,-0.0542796,-0.0523168,-0.0503164,-0.0482845,-0.0462271,-0.0441504,-0.0420608,-0.0399647,-0.0378686,-0.0357789,-0.0337022,-0.0316448,-0.0296133,-0.0276137,-0.0256523,-0.0237349,-0.0218673,-0.0200549,-0.0183028,-0.016616,-0.0149988,-0.0134554,-0.0119895,-0.0106042,-0.00930228,-0.00808603,-0.00695717,-0.00591689,-0.00496584,-0.0041041,-0.00333119,-0.00264608,-0.00204716,-0.00153229,-0.00109879,-0.000743487,-0.000462756,-0.000252551,-0.000108485,-2.59064e-05,0
0,-7.07263e-05,-0.000276256,-0.000610324,-0.00106699,-0.0016406,-0.00232571,-0.00311704,-0.00400949,-0.00499803,-0.00607775,-0.00724381,-0.00849141,-0.00981582,-0.0112124,-0.0126764,-0.0142033,-0.0157886,-0.0174276,-0.0191161,-0.0208496,-0.0226236,-0.024434,-0.0262765,-0.0281469,-0.0300411,-0.0319549,-0.0338845,-0.0358257,-0.0377748,-0.0397277,-0.0416807,-0.0436301,-0.0455719,-0.0475026,-0.0494183,-0.0513156,-0.0531906,-0.0550398,-0.0568597,-0.0586465,-0.0603969,-0.0621072,-0.063774,-0.0653938,-0.0669631,-0.0684786,-0.0699368,-0.0713345,-0.0726683,-0.0739351,-0.0751316,-0.0762549,-0.0773019,-0.0782698,-0.0791556,-0.0799568,-0.0806708,-0.0812952,-0.0818277,-0.0822662,-0.0826088,-0.0828537,-0.0829994,-0.0830446,-0.0829882,-0.0828293,-0.0825674,-0.0822019,-0.081733,-0.0811607,-0.0804856,-0.0797085,-0.0788304,-0.0778528,-0.0767775,-0.0756063,-0.0743419,-0.0729867,-0.071544,-0.0700171,-0.0684095,-0.0667255,-0.0649691,-0.0631452,-0.0612585,-0.0593142,-0.0573179,-0.055275,-0.0531917,-0.0510738,-0.0489279,-0.0467602,-0.0445773,-0.0423859,-0.0401927,-0.0380045,-0.035828,-0.03367,-0.031537,-0.0294357,-0.0273725,-0.0253535,-0.0233848,-0.0214722,-0.019621,-0.0178365,-0.0161235,-0.0144862,-0.0129287,-0.0114545,-0.0100666,-0.00876758,-0.00755939,-0.00644351,-0.00542085,-0.00449175,-0.00365599,-0.00291278,-0.00226077,-0.00169807,-0.00122225,-0.000830399,-0.000519144,-0.000284713,-0.000122989,-2.95983e-05,0
0,-7.56866e-05,-0.000295289,-0.000651745,-0.00113834,-0.00174868,-0.00247662,-0.00331622,-0.00426177,-0.00530769,-0.00644855,-0.00767905,-0.00899397,-0.0103882,-0.0118567,-0.0133946,-0.014997,-0.016659,-0.0183761,-0.0201434,-0.0219565,-0.0238109,-0.025702,-0.0276256,-0.0295774,-0.031553,-0.0335483,-0.0355592,-0.0375817,-0.0396117,-0.0416452,-0.0436784,-0.0457073,-0.0477282,-0.0497372,-0.0517305,-0.0537044,-0.0556552,-0.0575791,-0.0594725,-0.0613317,-0.0631532,-0.0649332,-0.0666681,-0.0683545,-0.0699888,-0.0715675,-0.0730871,-0.0745441,-0.0759353,-0.0772573,-0.0785068,-0.0796808,-0.080776,-0.0817895,-0.0827185,-0.08356,-0.0843115,-0.0849705,-0.0855346,-0.0860016,-0.0863695,-0.0866365,-0.0868008,-0.0868612,-0.0868164,-0.0866655,-0.0864078,-0.0860429,-0.0855705,-0.0849909,-0.0843045,-0.083512,-0.0826145,-0.0816133,-0.0805102,-0.0793072,-0.0780066,-0.0766112,-0.0751241,-0.0735485,-0.0718883,-0.0701475,-0.0683304,-0.0664418,-0.0644867,-0.0624703,-0.0603982,-0.0582763,-0.0561105,-0.0539072,-0.0516729,-0.0494142,-0.0471379,-0.0448508,-0.04256,-0.0402725,-0.0379952,-0.0357353,-0.0334997,-0.0312951,-0.0291284,-0.0270061,-0.0249345,-0.0229196,-0.0209673,-0.0190831,-0.017272,-0.0155387,-0.0138875,-0.0123223,-0.0108463,-0.00946249,-0.00817304,-0.00697974,-0.00588378,-0.00488577,-0.00398576,-0.00318323,-0.00247708,-0.00186568,-0.00134685,-0.000917931,-0.000575807,-0.000316947,-0.000137482,-3.32718e-05,0