-0,-0,-0,-0,-0,-0,-0,-0,-0,-0,-0,-0,-0,-0,-0,-0,-0,-0,-0,-0,-0,-0,-0,-0,-0,-0,-0,-0,-0,-0,-0,-0,-0,-0,-0,-0,-0,-0,-0,-0,-0,-0,-0,-0,-0,-0,-0,-0,-0,-0,-0,-0,-0,-0,-0,-0,-0,-0,-0,-0,-0,-0,-0,-0,-0,-0,-0,-0,-0,-0,-0,-0,-0,-0,-0,-0,-0,-0,-0,-0,-0,-0,-0,-0,-0,-0,-0,-0,-0,-0,-0,-0,-0,-0,-0,-0,-0,-0,-0,-0,-0,-0,-0,-0,-0,-0,-0,-0,-0,-0,-0,-0,-0,-0,-0,-0,-0,-0,-0,-0,-0,-0,-0,-0,-0,-0,-0,-0
-0,-6.56212e-06,-1.06535e-05,-1.11489e-05,-9.04282e-06,-5.31459e-06,-6.45974e-07,4.52076e-06,9.90047e-06,1.53073e-05,2.06185e-05,2.57529e-05,3.06572e-05,3.52971e-05,3.96522e-05,4.37115e-05,4.74712e-05,5.09324e-05,5.40999e-05,5.69813e-05,5.95855e-05,6.19229e-05,6.40044e-05,6.58412e-05,6.74445e-05,6.8825e-05,6.99933e-05,7.09593e-05,7.1732e-05,7.23198e-05,7.27304e-05,7.29706e-05,7.30461e-05,7.29622e-05,7.27232e-05,7.23325e-05,7.17929e-05,7.11067e-05,7.02753e-05,6.92997e-05,6.81804e-05,6.69176e-05,6.5511e-05,6.39603e-05,6.22648e-05,6.0424e-05,5.84372e-05,5.63039e-05,5.40237e-05,5.15966e-05,4.90227e-05,4.63028e-05,4.34379e-05,4.04299e-05,3.72809e-05,3.39939e-05,3.05727e-05,2.70217e-05,2.33462e-05,1.95524e-05,1.56472e-05,1.16386e-05,7.53538e-06,3.3474e-06,-9.14698e-07,-5.2393e-06,-9.61392e-06,-1.40252e-05,-1.84589e-05,-2.29001e-05,-2.7333e-05,-3.17413e-05,-3.6108e-05,-4.04157e-05,-4.46464e-05,-4.87818e-05,-5.28037e-05,-5.66933e-05,-6.04322e-05,-6.40019e-05,-6.73843e-05,-7.05615e-05,-7.35163e-05,-7.62322e-05,-7.86931e-05,-8.08843e-05,-8.27917e-05,-8.44025e-05,-8.57053e-05,-8.669e-05,-8.73477e-05,-8.76715e-05,-8.76558e-05,-8.72968e-05,-8.65925e-05,-8.55427e-05,-8.41491e-05,-8.24152e-05,-8.03464e-05,-7.795e-05,-7.52351e-05,-7.2213e-05,-6.88964e-05,-6.53004e-05,-6.14416e-05,-5.73386e-05,-5.3012e-05,-4.84844e-05,-4.37804e-05,-3.89271e-05,-3.3954e-05,-2.88938e-05,-2.37824e-05,-1.86605e-05,-1.35739e-05,-8.57567e-06,-3.72799e-06,8.94361e-07,5.19956e-06,9.07198e-06,1.23623e-05,1.48729e-05,1.63381e-05,1.64018e-05,1.46155e-05,1.05598e-05,4.49189e-06,-0
-0,-2.07878e-05,-3.04017e-05,-2.98585e-05,-2.17295e-05,-8.44843e-06,8.10177e-06,2.65627e-05,4.59776e-05,6.56771e-05,8.51937e-05,0.000104202,0.000122477,0.000139868,0.000156275,0.000171639,0.000185928,0.000199134,0.000211262,0.000222329,0.000232363,0.000241393,0.000249455,0.000256585,0.000262822,0.000268203,0.000272765,0.000276541,0.000279564,0.000281865,0.000283472,0.000284408,0.000284696,0.000284355,0.0002834,0.000281846,0.000279703,0.000276979,0.000273682,0.000269815,0.000265381,0.000260381,0.000254817,0.000248687,0.00024199,0.000234725,0.000226891,0.000218487,0.000209513,0.000199971,0.000189862,0.00017919,0.000167961,0.000156183,0.000143866,0.000131022,0.000117668,0.000103821,8.95026e-05,7.47376e-05,5.95538e-05,4.39824e-05,2.80583e-05,1.18194e-05,-4.69264e-06,-2.14328e-05,-3.83529e-05,-5.54014e-05,-7.25238e-05,-8.96626e-05,-0.000106758,-0.000123747,-0.000140565,-0.000157146,-0.000173422,-0.000189323,-0.00020478,-0.000219722,-0.000234079,-0.000247783,-0.000260763,-0.000272954,-0.00028429,-0.000294708,-0.00030415,-0.000312558,-0.000319882,-0.000326072,-0.000331086,-0.000334886,-0.000337439,-0.00033872,-0.000338707,-0.000337388,-0.000334754,-0.000330806,-0.000325551,-0.000319002,-0.000311181,-0.000302116,-0.000291843,-0.000280405,-0.000267852,-0.000254243,-0.000239641,-0.00022412,-0.000207759,-0.000190648,-0.000172882,-0.000154569,-0.000135824,-0.000116776,-9.75675e-05,-7.83566e-05,-5.93237e-05,-4.06749e-05,-2.26496e-05,-5.53123e-06,1.03398e-05,2.45473e-05,3.65749e-05,4.57768e-05,5.13466e-05,5.23069e-05,4.75805e-05,3.63246e-05,1.8978e-05,-0
-0,-3.70289e-05,-5.08468e-05,-4.61769e-05,-2.77349e-05,3.89163e-07,3.49413e-05,7.34503e-05,0.000114084,0.000155503,0.000196732,0.000237069,0.000276014,0.000313217,0.000348439,0.000381528,0.000412394,0.000440997,0.000467331,0.000491419,0.000513301,0.000533034,0.000550683,0.000566318,0.000580013,0.000591842,0.000601879,0.000610194,0.000616853,0.000621918,0.000625448,0.000627493,0.000628099,0.000627306,0.000625149,0.000621657,0.000616854,0.000610758,0.000603384,0.000594742,0.000584841,0.000573683,0.000561272,0.000547607,0.000532688,0.000516515,0.000499087,0.000480404,0.000460469,0.000439286,0.000416861,0.000393207,0.000368337,0.000342271,0.000315033,0.000286652,0.000257164,0.000226611,0.000195041,0.00016251,0.00012908,9.48198e-05,5.9807e-05,2.41255e-05,-1.2133e-05,-4.887e-05,-8.59797e-05,-0.00012335,-0.000160861,-0.000198388,-0.000235801,-0.000272965,-0.000309737,-0.000345976,-0.000381533,-0.00041626,-0.000450004,-0.000482616,-0.000513944,-0.000543837,-0.00057215,-0.000598737,-0.000623459,-0.000646181,-0.000666777,-0.000685125,-0.000701115,-0.000714642,-0.000725616,-0.000733955,-0.00073959,-0.000742465,-0.000742538,-0.000739779,-0.000734173,-0.000725722,-0.000714441,-0.000700361,-0.000683529,-0.000664007,-0.000641874,-0.000617224,-0.000590169,-0.000560835,-0.000529364,-0.000495917,-0.000460671,-0.00042382,-0.000385578,-0.000346179,-0.000305881,-0.000264967,-0.000223749,-0.000182579,-0.000141849,-0.000102006,-6.35646e-05,-2.71258e-05,6.60239e-06,3.67748e-05,6.23751e-05,8.21798e-05,9.47333e-05,9.83651e-05,9.13245e-05,7.21858e-05,4.07887e-05,-0
-0,-5.08409e-05,-6.55763e-05,-5.26943e-05,-1.92859e-05,2.88054e-05,8.69039e-05,0.000151364,0.000219393,0.00028888,0.000358247,0.000426322,0.000492249,0.000555411,0.000615377,0.000671857,0.00072467,0.00077372,0.000818973,0.000860446,0.000898188,0.000932278,0.000962812,0.000989897,0.00101365,0.00103418,0.00105161,0.00106606,0.00107762,0.00108641,0.00109252,0.00109603,0.00109701,0.00109554,0.00109168,0.00108546,0.00107694,0.00106615,0.00105311,0.00103784,0.00102036,0.00100067,0.000978785,0.000954704,0.000928429,0.000899963,0.000869306,0.000836464,0.000801443,0.000764254,0.000724912,0.000683441,0.000639867,0.000594227,0.000546568,0.000496942,0.000445414,0.00039206,0.000336965,0.000280229,0.00022196,0.000162281,0.000101326,3.92425e-05,-2.38101e-05,-8.76604e-05,-0.000152125,-0.00021701,-0.000282109,-0.000347207,-0.000412078,-0.000476489,-0.0005402,-0.000602962,-0.000664524,-0.00072463,-0.000783021,-0.000839439,-0.000893624,-0.000945322,-0.000994281,-0.00104025,-0.001083,-0.0011223,-0.00115793,-0.00118969,-0.00121738,-0.00124083,-0.00125989,-0.00127441,-0.00128429,-0.00128942,-0.00128973,-0.00128518,-0.00127574,-0.00126142,-0.00124223,-0.00121825,-0.00118954,-0.00115622,-0.00111842,-0.00107631,-0.00103009,-0.000979959,-0.00092618,-0.000869029,-0.000808812,-0.000745869,-0.000680572,-0.000613329,-0.000544587,-0.000474838,-0.000404626,-0.000334554,-0.000265296,-0.000197616,-0.000132381,-7.0589e-05,-1.33998e-05,3.78316e-05,8.15158e-05,0.000115794,0.00013852,0.000147297,0.000139616,0.000113197,6.65895e-05,-0
-0,-5.90818e-05,-6.97795e-05,-4.37599e-05,9.61929e-06,8.27885e-05,0.000169672,0.000265453,0.000366365,0.000469489,0.000572591,0.000673978,0.000772384,0.000866875,0.000956783,0.00104164,0.00112116,0.00119514,0.00126352,0.00132629,0.0013835,0.00143525,0.00148166,0.00152286,0.00155903,0.00159032,0.00161689,0.00163891,0.00165652,0.00166989,0.00167914,0.00168439,0.00168576,0.00168335,0.00167724,0.0016675,0.00165421,0.0016374,0.00161712,0.0015934,0.00156626,0.00153572,0.0015018,0.00146449,0.00142381,0.00137977,0.00133236,0.00128161,0.00122751,0.00117011,0.00110942,0.00104549,0.00097835,0.000908076,0.000834736,0.000758416,0.00067922,0.000597264,0.000512685,0.000425635,0.000336283,0.000244819,0.00015145,5.64019e-05,-4.00821e-05,-0.00013774,-0.000236291,-0.00033544,-0.000434874,-0.000534266,-0.000633274,-0.000731545,-0.000828714,-0.000924407,-0.00101824,-0.00110984,-0.0011988,-0.00128474,-0.00136727,-0.001446,-0.00152056,-0.00159057,-0.00165568,-0.00171555,-0.00176984,-0.00181826,-0.00186051,-0.00189634,-0.00192551,-0.00194781,-0.00196308,-0.00197117,-0.00197196,-0.0019654,-0.00195145,-0.00193011,-0.00190142,-0.00186548,-0.0018224,-0.00177235,-0.00171554,-0.00165223,-0.0015827,-0.00150729,-0.00142638,-0.00134039,-0.00124981,-0.00115513,-0.00105694,-0.00095585,-0.000852547,-0.000747779,-0.00064237,-0.000537231,-0.000433376,-0.000331939,-0.000234202,-0.00014162,-5.58578e-05,2.11721e-05,8.72692e-05,0.000139911,0.000176241,0.000193096,0.000187108,0.000154909,9.34119e-05,-0
-0,-5.96431e-05,-5.99773e-05,-1.51194e-05,6.3609e-05,0.000167052,0.000287815,0.000419964,0.000558781,0.000700546,0.000842357,0.000981976,0.00111769,0.00124823,0.00137266,0.0014903,0.00160071,0.0017036,0.00179885,0.00188641,0.00196631,0.00203867,0.00210362,0.00216135,0.00221205,0.00225593,0.00229321,0.00232408,0.00234876,0.00236744,0.0023803,0.0023875,0.0023892,0.00238553,0.00237661,0.00236253,0.00234339,0.00231926,0.00229018,0.00225621,0.00221739,0.00217373,0.00212526,0.00207199,0.00201395,0.00195113,0.00188357,0.00181127,0.00173426,0.00165258,0.00156629,0.00147542,0.00138007,0.00128031,0.00117626,0.00106804,0.000955807,0.000839728,0.000719997,0.000596832,0.000470477,0.0003412,0.000209294,7.50801e-05,-6.1099e-05,-0.000198874,-0.00033785,-0.000477613,-0.000617724,-0.000757724,-0.000897136,-0.00103547,-0.0011722,-0.00130683,-0.00143881,-0.00156761,-0.00169269,-0.0018135,-0.00192951,-0.00204017,-0.00214497,-0.00224339,-0.00233494,-0.00241914,-0.00249553,-0.00256369,-0.00262323,-0.00267379,-0.00271504,-0.00274669,-0.00276851,-0.00278031,-0.00278193,-0.00277327,-0.0027543,-0.00272501,-0.00268548,-0.00263582,-0.00257621,-0.00250689,-0.00242814,-0.00234033,-0.00224386,-0.0021392,-0.00202689,-0.00190753,-0.00178178,-0.00165036,-0.00151407,-0.00137379,-0.00123048,-0.00108517,-0.000939022,-0.000793296,-0.000649389,-0.000508855,-0.000373432,-0.000245072,-0.00012598,-1.86559e-05,7.40702e-05,0.000148998,0.000202542,0.000230735,0.000229274,0.000193591,0.000118889,-0
-0,-5.11562e-05,-3.37387e-05,3.63503e-05,0.000146195,0.000285264,0.00044497,0.00061835,0.000799789,0.0009848,0.00116983,0.00135209,0.00152943,0.0017002,0.00186318,0.00201749,0.0021625,0.00229784,0.00242326,0.00253869,0.00264416,0.00273975,0.00282564,0.00290202,0.00296914,0.00302724,0.00307659,0.00311744,0.00315006,0.00317467,0.00319151,0.00320078,0.00320269,0.0031974,0.00318506,0.0031658,0.00313974,0.00310696,0.00306755,0.00302156,0.00296905,0.00291005,0.00284459,0.0027727,0.00269441,0.00260974,0.00251871,0.00242136,0.00231773,0.00220787,0.00209186,0.00196978,0.00184174,0.00170786,0.00156828,0.0014232,0.00127281,0.00111734,0.000957063,0.00079227,0.000623289,0.00045048,0.000274238,9.49879e-05,-8.68094e-05,-0.000270663,-0.000456049,-0.000642415,-0.000829181,-0.00101574,-0.00120145,-0.00138568,-0.00156774,-0.00174694,-0.00192259,-0.00209398,-0.0022604,-0.00242112,-0.00257544,-0.00272266,-0.00286209,-0.00299305,-0.00311489,-0.00322698,-0.00332874,-0.00341961,-0.00349906,-0.00356662,-0.00362188,-0.00366445,-0.00369402,-0.00371034,-0.00371322,-0.00370252,-0.0036782,-0.00364026,-0.00358879,-0.00352395,-0.00344597,-0.00335517,-0.00325194,-0.00313674,-0.00301013,-0.00287273,-0.00272524,-0.00256847,-0.00240328,-0.00223065,-0.00205163,-0.00186738,-0.00167917,-0.00148837,-0.00129649,-0.00110518,-0.000916272,-0.000731758,-0.00055387,-0.000385084,-0.000228169,-8.62247e-05,3.72763e-05,0.000138449,0.000212965,0.000256034,0.000262389,0.000226252,0.000141226,-0
-0,-3.27624e-05,1.0577e-05,0.000112873,0.000259978,0.000440218,0.000643976,0.000863366,0.00109196,0.00132454,0.00155696,0.00178588,0.00200872,0.00222348,0.00242862,0.00262305,0.00280597,0.00297685,0.00313538,0.00328143,0.00341498,0.00353612,0.00364504,0.00374196,0.00382715,0.00390091,0.00396353,0.00401532,0.0040566,0.00408764,0.00410873,0.00412012,0.00412205,0.00411472,0.00409832,0.00407301,0.00403893,0.0039962,0.00394492,0.00388517,0.00381701,0.00374049,0.00365567,0.00356257,0.00346124,0.00335171,0.00323403,0.00310824,0.00297442,0.00283262,0.00268296,0.00252555,0.00236053,0.00218807,0.00200837,0.00182167,0.00162823,0.00142836,0.00122239,0.00101073,0.000793773,0.000572,0.000345914,0.000116062,-0.000116968,-0.000352546,-0.000590007,-0.000828644,-0.00106772,-0.00130646,-0.00154406,-0.00177969,-0.0020125,-0.00224163,-0.00246617,-0.00268524,-0.00289792,-0.00310333,-0.00330056,-0.00348872,-0.00366694,-0.00383437,-0.00399019,-0.00413361,-0.00426389,-0.00438031,-0.00448222,-0.00456904,-0.00464021,-0.00469529,-0.00473386,-0.00475561,-0.00476029,-0.00474775,-0.00471792,-0.00467082,-0.00460655,-0.00452532,-0.00442743,-0.00431327,-0.00418335,-0.00403827,-0.0038787,-0.00370547,-0.00351946,-0.00332169,-0.00311328,-0.00289544,-0.00266953,-0.00243702,-0.0021995,-0.00195872,-0.00171657,-0.00147512,-0.00123665,-0.00100363,-0.00077881,-0.000565204,-0.000366159,-0.000185383,-2.69964e-05,0.000104429,0.000203823,0.000265572,0.000283461,0.00025057,0.000159094,-0
-0,-3.95023e-06,7.40306e-05,0.000215974,0.000406821,0.000633988,0.000886997,0.00115716,0.00143733,0.00172164,0.00200537,0.00228469,0.00255659,0.00281873,0.00306929,0.00330692,0.00353066,0.00373986,0.00393409,0.00411316,0.00427703,0.00442577,0.00455957,0.00467867,0.00478337,0.004874,0.00495091,0.00501445,0.00506499,0.00510285,0.00512835,0.00514181,0.0051435,0.00513366,0.00511252,0.00508027,0.00503708,0.00498309,0.00491843,0.0048432,0.00475747,0.00466132,0.0045548,0.00443798,0.00431091,0.00417363,0.00402621,0.00386872,0.00370124,0.00352389,0.00333679,0.00314009,0.00293398,0.00271869,0.00249446,0.0022616,0.00202045,0.00177138,0.00151483,0.00125129,0.000981273,0.000705368,0.000424202,0.000138457,-0.000151138,-0.000443805,-0.000738718,-0.001035,-0.00133175,-0.00162801,-0.00192279,-0.00221507,-0.0025038,-0.00278791,-0.00306631,-0.00333789,-0.00360156,-0.0038562,-0.00410072,-0.00433402,-0.00455503,-0.00476272,-0.00495607,-0.00513413,-0.00529597,-0.00544074,-0.00556763,-0.00567592,-0.00576495,-0.00583414,-0.00588302,-0.00591119,-0.00591835,-0.00590431,-0.00586899,-0.00581241,-0.0057347,-0.00563612,-0.00551704,-0.00537795,-0.00521946,-0.00504231,-0.00484735,-0.00463557,-0.00440808,-0.00416613,-0.00391108,-0.00364446,-0.00336791,-0.00308324,-0.0027924,-0.00249753,-0.00220094,-0.00190514,-0.00161286,-0.0013271,-0.00105111,-0.000788477,-0.000543124,-0.000319374,-0.000121993,4.37652e-05,0.0001721,0.000256597,0.000290144,0.000264788,0.000171532,-0
-0,3.55566e-05,0.000157263,0.000346646,0.000588002,0.000868054,0.00117562,0.00150136,0.00183748,0.00217756,0.00251635,0.00284959,0.00317388,0.00348652,0.00378544,0.00406907,0.00433626,0.00458623,0.00481846,0.00503269,0.00522883,0.00540695,0.00556723,0.00570993,0.00583537,0.00594393,0.00603598,0.00611194,0.0061722,0.00621715,0.00624715,0.00626255,0.00626368,0.00625081,0.00622421,0.0061841,0.00613069,0.00606414,0.0059846,0.00589219,0.00578702,0.00566916,0.0055387,0.00539572,0.00524027,0.00507244,0.00489231,0.00469996,0.00449553,0.00427914,0.00405096,0.00381118,0.00356005,0.00329784,0.00302487,0.00274151,0.00244817,0.00214534,0.00183353,0.00151334,0.00118541,0.00085045,0.000509216,0.000162538,-0.000188703,-0.000543564,-0.00090105,-0.00126011,-0.00161965,-0.00197851,-0.00233551,-0.00268943,-0.003039,-0.00338294,-0.00371994,-0.00404868,-0.00436784,-0.00467609,-0.0049721,-0.00525458,-0.00552225,-0.00577386,-0.00600821,-0.00622413,-0.00642055,-0.00659642,-0.00675079,-0.00688279,-0.00699162,-0.00707662,-0.00713719,-0.00717287,-0.0071833,-0.00716825,-0.00712762,-0.00706145,-0.00696988,-0.00685323,-0.00671194,-0.0065466,-0.00635794,-0.00614684,-0.00591435,-0.00566164,-0.00539004,-0.00510106,-0.00479633,-0.00447768,-0.00414709,-0.0038067,-0.00345887,-0.00310613,-0.00275121,-0.00239711,-0.00204704,-0.00170449,-0.00137328,-0.00105753,-0.00076177,-0.00049093,-0.000250415,-4.61487e-05,0.000115358,0.000226933,0.000280633,0.000267603,0.000177859,-0
-0,8.5875e-05,0.000260617,0.000505482,0.000804344,0.00114342,0.00151098,0.00189714,0.00229359,0.00269341,0.00309092,0.00348144,0.00386123,0.00422728,0.00457728,0.00490945,0.00522246,0.00551541,0.00578769,0.00603896,0.0062691,0.00647815,0.0066663,0.00683382,0.00698106,0.00710842,0.00721633,0.00730522,0.00737555,0.00742775,0.00746223,0.00747938,0.00747956,0.00746309,0.00743029,0.00738139,0.00731664,0.00723623,0.00714034,0.00702909,0.00690263,0.00676105,0.00660446,0.00643294,0.00624659,0.0060455,0.00582979,0.00559956,0.00535497,0.0050962,0.00482345,0.00453697,0.00423704,0.00392401,0.00359826,0.00326024,0.00291046,0.00254949,0.00217796,0.00179656,0.00140609,0.00100736,0.000601296,0.000188872,-0.000228863,-0.000650795,-0.00107575,-0.00150248,-0.00192968,-0.00235602,-0.00278008,-0.00320042,-0.00361555,-0.00402398,-0.00442415,-0.00481451,-0.00519351,-0.00555958,-0.00591118,-0.00624677,-0.00656485,-0.00686397,-0.0071427,-0.00739969,-0.00763365,-0.00784338,-0.00802773,-0.0081857,-0.00831636,-0.00841891,-0.00849266,-0.00853705,-0.00855168,-0.00853626,-0.00849069,-0.00841498,-0.00830934,-0.00817411,-0.00800982,-0.00781716,-0.007597,-0.00735036,-0.00707848,-0.00678273,-0.0064647,-0.00612613,-0.00576897,-0.00539535,-0.00500759,-0.00460822,-0.00419997,-0.00378582,-0.00336894,-0.0029528,-0.00254111,-0.0021379,-0.0017475,-0.00137464,-0.00102441,-0.00070235,-0.000414501,-0.000167437,3.16528e-05,0.000174884,0.000253569,0.000258068,0.000177601,-0
-0,0.000147014,0.000384219,0.000692779,0.00105631,0.00146069,0.00189379,0.00234529,0.00280646,0.00326998,0.00372978,0.00418085,0.00461912,0.00504134,0.00544496,0.005828,0.00618899,0.00652691,0.00684106,0.00713104,0.00739669,0.00763804,0.00785526,0.00804865,0.00821857,0.00836546,0.00848977,0.00859201,0.00867265,0.00873216,0.00877102,0.00878965,0.00878844,0.00876778,0.00872799,0.00866936,0.00859215,0.0084966,0.00838288,0.00825118,0.00810163,0.00793437,0.00774952,0.00754718,0.00732748,0.00709053,0.00683646,0.00656544,0.00627764,0.00597328,0.00565261,0.00531593,0.00496359,0.00459599,0.00421361,0.00381696,0.00340666,0.00298337,0.00254784,0.00210089,0.00164344,0.00117645,0.000701,0.000218229,-0.000270644,-0.000764318,-0.00126142,-0.00176051,-0.00226009,-0.00275857,-0.00325433,-0.0037457,-0.00423096,-0.00470836,-0.00517611,-0.00563242,-0.00607549,-0.0065035,-0.00691467,-0.00730722,-0.00767942,-0.00802958,-0.00835605,-0.00865728,-0.00893176,-0.0091781,-0.009395,-0.00958126,-0.00973583,-0.00985776,-0.00994627,-0.0100007,-0.0100206,-0.0100056,-0.00995561,-0.00987063,-0.00975088,-0.00959678,-0.00940893,-0.00918812,-0.00893535,-0.00865182,-0.00833894,-0.00799831,-0.00763176,-0.00724132,-0.00682921,-0.00639792,-0.00595011,-0.0054887,-0.00501685,-0.00453794,-0.00405563,-0.00357387,-0.00309687,-0.0026292,-0.00217575,-0.00174179,-0.00133302,-0.000955573,-0.000616105,-0.000321821,-8.05542e-05,9.91529e-05,0.000207943,0.000235513,0.000170442,-0
-0,0.00021891,0.000528048,0.000908611,0.00134411,0.0018202,0.00232447,0.00284629,0.00337661,0.00390778,0.00443341,0.00494821,0.00544786,0.00592887,0.00638849,0.00682458,0.00723555,0.00762025,0.00797792,0.0083081,0.00861059,0.00888542,0.00913275,0.00935289,0.00954623,0.00971323,0.00985441,0.00997027,0.0100613,0.0101282,0.0101712,0.010191,0.0101879,0.0101624,0.0101149,0.0100455,0.00995475,0.00984277,0.00970981,0.00955605,0.00938168,0.00918683,0.00897166,0.0087363,0.00848088,0.00820555,0.00791049,0.00759587,0.00726192,0.0069089,0.0065371,0.00614689,0.00573868,0.00531294,0.00487022,0.00441115,0.00393642,0.00344682,0.0029432,0.00242653,0.00189785,0.0013583,0.000809101,0.000251566,-0.000312898,-0.0008828,-0.00145656,-0.00203254,-0.00260899,-0.00318413,-0.00375609,-0.00432295,-0.00488275,-0.00543349,-0.00597313,-0.00649961,-0.00701087,-0.00750486,-0.00797952,-0.00843283,-0.0088628,-0.00926751,-0.00964509,-0.00999373,-0.0103117,-0.0105975,-0.0108495,-0.0110665,-0.0112471,-0.0113904,-0.0114954,-0.0115613,-0.0115877,-0.0115741,-0.0115204,-0.0114265,-0.0112928,-0.0111198,-0.010908,-0.0106584,-0.0103722,-0.0100506,-0.00969534,-0.00930821,-0.00889128,-0.00844687,-0.00797753,-0.00748607,-0.00697552,-0.00644921,-0.00591071,-0.00536385,-0.00481277,-0.0042619,-0.00371599,-0.00318013,-0.00265976,-0.00216073,-0.00168931,-0.00125224,-0.000856759,-0.000510689,-0.000222468,-1.24624e-06,0.000143026,0.000199478,0.000156184,-0
-0,0.000301452,0.000691974,0.00115289,0.00166772,0.00222201,0.00280317,0.00340036,0.00400429,0.00460706,0.00520205,0.00578373,0.00634758,0.00688991,0.00740781,0.00789901,0.0083618,0.00879496,0.00919764,0.00956935,0.00990987,0.0102192,0.0104975,0.0107452,0.0109626,0.0111501,0.0113085,0.0114382,0.0115397,0.0116138,0.0116608,0.0116814,0.0116759,0.0116449,0.0115887,0.0115077,0.0114023,0.0112726,0.011119,0.0109416,0.0107407,0.0105165,0.010269,0.00999846,0.00970506,0.00938895,0.00905034,0.00868944,0.00830653,0.0079019,0.0074759,0.00702897,0.00656158,0.00607428,0.0055677,0.00504256,0.00449967,0.00393993,0.00336432,0.00277393,0.00216997,0.00155372,0.000926572,0.000290031,-0.00035431,-0.00100476,-0.00165953,-0.00231675,-0.00297447,-0.00363063,-0.00428314,-0.00492983,-0.00556848,-0.00619682,-0.00681255,-0.00741335,-0.00799688,-0.00856082,-0.00910286,-0.0096207,-0.0101121,-0.0105749,-0.0110069,-0.0114062,-0.0117708,-0.0120988,-0.0123887,-0.0126388,-0.0128478,-0.0130145,-0.0131378,-0.0132168,-0.013251,-0.0132399,-0.0131833,-0.0130813,-0.012934,-0.0127421,-0.0125062,-0.0122274,-0.011907,-0.0115465,-0.0111477,-0.0107126,-0.0102436,-0.00974335,-0.00921466,-0.00866069,-0.00808487,-0.00749093,-0.00688285,-0.00626496,-0.00564185,-0.00501846,-0.00440007,-0.00379229,-0.00320114,-0.00263302,-0.00209478,-0.00159375,-0.00113774,-0.000735165,-0.000395033,-0.000127052,5.8297e-05,0.000149662,0.000134707,-0
-0,0.000394496,0.000875795,0.00142543,0.00202699,0.00266601,0.00332984,0.0040075,0.00468954,0.00536789,0.00603576,0.00668744,0.00731824,0.00792436,0.00850274,0.00905101,0.00956737,0.0100505,0.0104996,0.0109141,0.0112937,0.0116384,0.0119485,0.0122243,0.0124662,0.0126747,0.0128505,0.0129941,0.0131061,0.0131872,0.0132379,0.0132588,0.0132504,0.0132132,0.0131476,0.013054,0.0129328,0.0127842,0.0126086,0.0124061,0.012177,0.0119216,0.0116399,0.0113321,0.0109986,0.0106394,0.0102548,0.00984504,0.00941047,0.00895142,0.0084683,0.0079616,0.00743186,0.00687972,0.00630591,0.00571124,0.00509662,0.00446307,0.00381171,0.00314378,0.00246063,0.00176371,0.00105459,0.000334957,-0.000393396,-0.00112857,-0.00186855,-0.00261125,-0.00335446,-0.00409591,-0.00483323,-0.00556398,-0.0062857,-0.00699582,-0.00769179,-0.00837099,-0.00903083,-0.00966868,-0.010282,-0.0108681,-0.0114246,-0.011949,-0.0124389,-0.0128921,-0.0133064,-0.0136797,-0.0140102,-0.0142961,-0.0145359,-0.0147281,-0.0148717,-0.0149656,-0.0150092,-0.0150018,-0.0149434,-0.0148339,-0.0146736,-0.0144631,-0.0142032,-0.0138949,-0.0135399,-0.0131396,-0.0126962,-0.012212,-0.0116894,-0.0111316,-0.0105415,-0.00992287,-0.00927936,-0.00861515,-0.00793469,-0.00724273,-0.00654439,-0.00584509,-0.00515064,-0.00446722,-0.00380137,-0.00316008,-0.00255076,-0.00198131,-0.00146013,-0.000996169,-0.00059899,-0.000278817,-4.66074e-05,8.58715e-05,0.000105955,-0
-0,0.000497878,0.00107926,0.00172593,0.00242163,0.00315197,0.00390428,0.00466754,0.00543221,0.00619014,0.0069344,0.00765918,0.00835969,0.00903201,0.009673,0.0102802,0.0108518,0.0113864,0.0118832,0.0123415,0.0127611,0.0131421,0.0134846,0.0137891,0.0140559,0.0142857,0.014479,0.0146366,0.014759,0.0148469,0.014901,0.0149217,0.0149098,0.0148657,0.0147898,0.0146827,0.0145446,0.0143759,0.0141769,0.0139479,0.0136891,0.0134007,0.013083,0.0127361,0.0123603,0.0119558,0.0115229,0.0110618,0.010573,0.0100569,0.00951384,0.00894446,0.00834936,0.00772927,0.007085,0.00641746,0.0057277,0.00501684,0.00428614,0.003537,0.00277091,0.0019895,0.00119452,0.000387854,-0.000428506,-0.00125244,-0.00208172,-0.00291401,-0.00374686,-0.00457774,-0.00540402,-0.00622301,-0.00703194,-0.00782799,-0.00860829,-0.00936997,-0.0101101,-0.0108258,-0.0115143,-0.0121725,-0.0127978,-0.0133874,-0.0139387,-0.0144492,-0.0149164,-0.015338,-0.015712,-0.0160364,-0.0163095,-0.0165297,-0.0166956,-0.0168063,-0.0168609,-0.0168589,-0.0167999,-0.0166839,-0.0165113,-0.0162826,-0.0159988,-0.0156611,-0.015271,-0.0148305,-0.0143416,-0.0138071,-0.0132297,-0.0126126,-0.0119594,-0.0112739,-0.0105604,-0.00982334,-0.00906771,-0.00829871,-0.00752193,-0.00674333,-0.00596924,-0.00520638,-0.00446187,-0.00374323,-0.00305847,-0.00241602,-0.00182486,-0.00129447,-0.000834936,-0.000456963,-0.000171941,7.99504e-06,6.9908e-05,-0
-0,0.000611424,0.00130208,0.00205405,0.00285129,0.00367951,0.00452613,0.00538015,0.00623202,0.00707353,0.00789771,0.00869869,0.00947163,0.0102125,0.0109182,0.0115862,0.0122146,0.0128021,0.0133477,0.0138509,0.0143114,0.0147293,0.0151049,0.0154384,0.0157305,0.0159818,0.0161928,0.0163642,0.0164969,0.0165914,0.0166484,0.0166686,0.0166526,0.0166009,0.0165139,0.0163923,0.0162363,0.0160463,0.0158227,0.0155657,0.0152756,0.0149527,0.0145972,0.0142093,0.0137892,0.0133373,0.0128539,0.0123392,0.0117938,0.011218,0.0106123,0.0099775,0.00931418,0.00862315,0.00790535,0.00716178,0.0063936,0.00560208,0.0047886,0.00395472,0.00310208,0.00223251,0.00134792,0.000450407,-0.000457831,-0.00137446,-0.002297,-0.00322289,-0.00414943,-0.00507381,-0.00599315,-0.00690447,-0.00780472,-0.00869079,-0.00955952,-0.0104077,-0.0112322,-0.0120298,-0.0127972,-0.0135314,-0.0142293,-0.0148878,-0.0155041,-0.0160753,-0.0165987,-0.0170719,-0.0174924,-0.0178582,-0.0181672,-0.0184178,-0.0186085,-0.0187381,-0.0188056,-0.0188104,-0.0187522,-0.0186309,-0.0184469,-0.0182007,-0.0178934,-0.0175263,-0.0171011,-0.0166198,-0.0160849,-0.0154991,-0.0148655,-0.0141877,-0.0134695,-0.0127152,-0.0119294,-0.0111171,-0.0102835,-0.00943452,-0.0085761,-0.00771478,-0.00685741,-0.00601126,-0.005184,-0.00438374,-0.00361902,-0.00289886,-0.00223275,-0.00163073,-0.00110337,-0.000661819,-0.000317887,-8.40317e-05,2.65696e-05,-0
-0,0.000734951,0.00154395,0.00240941,0.00331552,0.00424819,0.00519497,0.00614491,0.00708853,0.00801764,0.00892528,0.00980556,0.0106536,0.0114655,0.0122379,0.0129685,0.0136553,0.0142969,0.0148925,0.0154415,0.0159437,0.0163993,0.0168083,0.0171714,0.017489,0.0177618,0.0179906,0.0181759,0.0183186,0.0184194,0.018479,0.0184982,0.0184774,0.0184174,0.0183186,0.0181815,0.0180066,0.0177942,0.0175447,0.0172584,0.0169357,0.0165766,0.0161816,0.0157509,0.0152847,0.0147835,0.0142474,0.0136769,0.0130725,0.0124346,0.0117638,0.0110609,0.0103266,0.00956185,0.00876758,0.00794496,0.00709524,0.00621984,0.00532029,0.00439828,0.00345563,0.00249434,0.00151653,0.000524475,-0.000479399,-0.00149253,-0.00251222,-0.00353563,-0.00455982,-0.00558172,-0.00659816,-0.00760587,-0.00860151,-0.00958168,-0.0105429,-0.0114817,-0.0123946,-0.013278,-0.0141285,-0.0149426,-0.0157169,-0.0164481,-0.0171329,-0.0177684,-0.0183515,-0.0188795,-0.0193498,-0.01976,-0.0201078,-0.0203916,-0.0206094,-0.0207602,-0.0208427,-0.0208562,-0.0208003,-0.0206751,-0.0204807,-0.0202179,-0.0198876,-0.0194914,-0.0190311,-0.0185088,-0.0179271,-0.0172892,-0.0165984,-0.0158584,-0.0150737,-0.0142486,-0.0133883,-0.0124981,-0.0115839,-0.0106519,-0.0097086,-0.00876107,-0.0078167,-0.00688331,-0.00596913,-0.00508283,-0.00423352,-0.00343076,-0.00268459,-0.00200556,-0.00140471,-0.000893665,-0.000484584,-0.000190246,-2.40441e-05,-0
-0,0.000868274,0.00180455,0.00279159,0.00381386,0.00485751,0.00591025,0.00696129,0.00800123,0.00902197,0.0100166,0.0109793,0.0119052,0.0127903,0.0136316,0.0144265,0.0151731,0.0158702,0.0165169,0.0171126,0.0176573,0.018151,0.0185941,0.018987,0.0193304,0.0196249,0.0198713,0.0200704,0.020223,0.0203298,0.0203916,0.0204092,0.0203831,0.0203141,0.0202026,0.0200492,0.0198544,0.0196186,0.019342,0.0190252,0.0186683,0.0182717,0.0178356,0.0173604,0.0168464,0.0162938,0.0157031,0.0150747,0.0144091,0.0137069,0.0129686,0.0121951,0.0113873,0.0105461,0.00967254,0.00876797,0.00783375,0.0068714,0.00588261,0.00486921,0.00383322,0.0027768,0.00170226,0.000612084,-0.00049108,-0.00160444,-0.00272506,-0.00384985,-0.0049756,-0.00609896,-0.00721649,-0.00832463,-0.00941973,-0.0104981,-0.0115559,-0.0125894,-0.0135948,-0.0145681,-0.0155056,-0.0164036,-0.0172583,-0.018066,-0.0188233,-0.0195268,-0.0201732,-0.0207595,-0.0212829,-0.0217406,-0.0221304,-0.0224501,-0.0226978,-0.0228722,-0.0229719,-0.0229961,-0.0229445,-0.0228167,-0.0226133,-0.0223348,-0.0219823,-0.0215574,-0.0210621,-0.0204986,-0.0198699,-0.0191791,-0.01843,-0.0176266,-0.0167735,-0.0158758,-0.0149388,-0.0139684,-0.0129707,-0.0119527,-0.0109212,-0.00988392,-0.00884874,-0.00782405,-0.00681865,-0.00584176,-0.00490305,-0.00401265,-0.00318113,-0.00241953,-0.0017394,-0.00115275,-0.000672158,-0.000310676,-8.19155e-05,-0
-0,0.00101121,0.00208355,0.00320015,0.0043458,0.00550691,0.00667141,0.00782869,0.00896952,0.0100859,0.0111711,0.0122192,0.0132256,0.0141864,0.0150985,0.0159594,0.0167674,0.0175212,0.01822,0.0188634,0.0194513,0.0199837,0.0204612,0.0208843,0.0212536,0.0215699,0.021834,0.0220467,0.0222089,0.0223214,0.022385,0.0224005,0.0223686,0.0222899,0.022165,0.0219945,0.0217788,0.0215185,0.0212138,0.0208652,0.0204729,0.0200373,0.0195587,0.0190375,0.0184738,0.0178682,0.0172211,0.0165328,0.015804,0.0150352,0.0142272,0.0133808,0.0124969,0.0115767,0.0106213,0.00963202,0.00861044,0.00755821,0.00647715,0.00536926,0.00423671,0.00308185,0.00190719,0.000715421,-0.000490589,-0.00170782,-0.00293308,-0.00416303,-0.00539419,-0.00662293,-0.00784552,-0.0090581,-0.0102567,-0.0114373,-0.0125959,-0.0137282,-0.0148302,-0.0158976,-0.0169263,-0.0179123,-0.0188513,-0.0197397,-0.0205733,-0.0213487,-0.0220622,-0.0227105,-0.0232904,-0.0237992,-0.024234,-0.0245927,-0.0248732,-0.0250739,-0.0251932,-0.0252304,-0.0251849,-0.0250565,-0.0248454,-0.0245524,-0.0241786,-0.0237257,-0.0231956,-0.022591,-0.0219148,-0.0211705,-0.0203622,-0.0194941,-0.0185712,-0.0175989,-0.016583,-0.0155298,-0.014446,-0.0133388,-0.0122158,-0.0110851,-0.00995524,-0.00883507,-0.00773399,-0.0066618,-0.00562873,-0.00464547,-0.00372312,-0.00287323,-0.00210782,-0.00143935,-0.000880739,-0.00044536,-0.000147033,-0