-0,-0.000891665,-0.00333356,-0.00630365,-0.0089972,-0.0108974,-0.011697,-0.0112256,-0.00940046,-0.00619612,-0.00162438,0.00427807,0.0114581,0.0198519,0.029389,0.0399952,0.0515945,0.0641106,0.0774681,0.0915933,0.106415,0.121863,0.137871,0.154377,0.171319,0.188639,0.206282,0.224195,0.242329,0.260635,0.279068,0.297582,0.316137,0.33469,0.353202,0.371633,0.389946,0.408104,0.426069,0.443804,0.461273,0.478439,0.495267,0.511719,0.527759,0.54335,0.558454,0.573036,0.587057,0.60048,0.613268,0.625383,0.636789,0.64745,0.657328,0.666388,0.674597,0.681919,0.688324,0.693779,0.698256,0.701728,0.704169,0.705556,0.705869,0.705091,0.703208,0.700207,0.696083,0.69083,0.68445,0.676945,0.668325,0.658602,0.647794,0.635922,0.623013,0.609098,0.594213,0.578398,0.5617,0.544167,0.525854,0.506821,0.487128,0.466845,0.446039,0.424786,0.403163,0.381248,0.359124,0.336875,0.314587,0.292346,0.27024,0.248357,0.226785,0.20561,0.184918,0.164794,0.145319,0.126574,0.108635,0.0915747,0.0754623,0.0603624,0.0463343,0.0334323,0.0217042,0.0111918,0.00192926,-0.00605686,-0.0127488,-0.0181383,-0.0222283,-0.0250339,-0.0265848,-0.0269277,-0.0261304,-0.0242863,-0.0215219,-0.0180063,-0.0139664,-0.00970654,-0.0056343,-0.00228188,-0.000269931,-0
-0.000891665,-0.00155159,-0.00221063,-0.00294839,-0.0034705,-0.00346215,-0.00267798,-0.000949844,0.00182632,0.00570578,0.0107079,0.0168259,0.0240343,0.0322943,0.0415577,0.05177,0.0628727,0.074805,0.087505,0.100911,0.11496,0.129594,0.144753,0.16038,0.17642,0.192819,0.209527,0.226494,0.243673,0.261018,0.278484,0.29603,0.313614,0.331196,0.348736,0.366198,0.383543,0.400736,0.417738,0.434515,0.451031,0.467251,0.483138,0.498659,0.513777,0.528458,0.542665,0.556365,0.569522,0.582101,0.594067,0.605386,0.616023,0.625946,0.63512,0.643514,0.651097,0.657839,0.66371,0.668683,0.672732,0.675834,0.677967,0.679112,0.67925,0.678369,0.676455,0.673501,0.669502,0.664455,0.658363,0.65123,0.643065,0.633883,0.6237,0.612538,0.600422,0.587381,0.57345,0.558666,0.543073,0.526715,0.509643,0.491911,0.473577,0.454701,0.435347,0.415583,0.395479,0.375105,0.354538,0.333852,0.313125,0.292436,0.271862,0.251484,0.23138,0.211627,0.192304,0.173485,0.155245,0.137654,0.12078,0.104689,0.0894414,0.0750941,0.0616994,0.0493041,0.0379493,0.02767,0.018494,0.0104413,0.00352367,-0.00225669,-0.00690828,-0.0104517,-0.0129213,-0.0143678,-0.0148609,-0.0144925,-0.0133819,-0.0116802,-0.00957517,-0.00729352,-0.00509093,-0.00320883,-0.00173972,-0.000269931
-0.00333639,-0.00221296,-0.00101,0.000189685,0.00152367,0.00319475,0.00539423,0.0082749,0.011947,0.0164825,0.0219223,0.0282821,0.0355586,0.043734,0.0527792,0.0626574,0.0733258,0.0847376,0.0968435,0.109592,0.122933,0.136812,0.15118,0.165986,0.181179,0.196711,0.212535,0.228605,0.244876,0.261306,0.277851,0.294472,0.311128,0.32778,0.344391,0.360923,0.37734,0.393605,0.409685,0.425543,0.441144,0.456456,0.471442,0.48607,0.500306,0.514115,0.527466,0.540323,0.552655,0.564429,0.575612,0.586173,0.59608,0.605302,0.61381,0.621574,0.628566,0.634759,0.640129,0.64465,0.6483,0.651059,0.652909,0.653831,0.653813,0.652843,0.650911,0.648012,0.644142,0.639302,0.633494,0.626724,0.619004,0.610345,0.600766,0.590287,0.578933,0.566731,0.553713,0.539915,0.525376,0.510139,0.494249,0.477757,0.460713,0.443174,0.425199,0.406847,0.388181,0.369268,0.350173,0.330965,0.311713,0.292487,0.273359,0.254398,0.235676,0.217262,0.199225,0.181631,0.164547,0.148035,0.132157,0.116968,0.102524,0.0888729,0.076061,0.0641284,0.0531097,0.0430339,0.0339228,0.025791,0.0186452,0.0124825,0.00729032,0.00304432,-0.000292535,-0.00277184,-0.00446167,-0.00544858,-0.00583941,-0.00576217,-0.00536421,-0.00480398,-0.00422874,-0.00372378,-0.00321065,-0.00227732
-0.00631995,-0.00295483,0.000192963,0.00319255,0.00617989,0.00932256,0.0127848,0.0167082,0.0212047,0.0263563,0.0322185,0.0388242,0.0461875,0.0543077,0.0631724,0.0727598,0.0830411,0.0939823,0.105545,0.11769,0.130372,0.143549,0.157177,0.17121,0.185605,0.200317,0.215303,0.23052,0.245928,0.261484,0.27715,0.292886,0.308653,0.324414,0.340132,0.355772,0.371298,0.386674,0.401867,0.416843,0.431567,0.446006,0.460129,0.473901,0.487291,0.500267,0.512797,0.52485,0.536395,0.547402,0.557839,0.567679,0.576892,0.585451,0.593328,0.600497,0.606932,0.612611,0.617511,0.621611,0.62489,0.627333,0.628922,0.629645,0.62949,0.628447,0.626511,0.623676,0.619943,0.615312,0.609787,0.603376,0.59609,0.587942,0.578948,0.56913,0.55851,0.547115,0.534975,0.522122,0.508593,0.494427,0.479665,0.464354,0.44854,0.432274,0.415607,0.398596,0.381296,0.363766,0.346066,0.328256,0.310398,0.292556,0.274792,0.257168,0.239748,0.222593,0.205764,0.189321,0.173322,0.157821,0.142872,0.128526,0.114828,0.101823,0.0895488,0.0780399,0.0673253,0.0574281,0.0483652,0.0401466,0.0327742,0.0262417,0.020533,0.0156218,0.01147,0.00802684,0.00522769,0.00299337,0.00123009,-0.000168954,-0.00131881,-0.00233211,-0.00329837,-0.00424849,-0.00510279,-0.00561973
-0.00904316,-0.0034808,0.00154326,0.00620737,0.0106811,0.0151318,0.0197161,0.0245712,0.0298108,0.0355239,0.0417767,0.0486148,0.0560662,0.0641443,0.0728503,0.0821756,0.0921036,0.102612,0.113672,0.125253,0.13732,0.149838,0.162768,0.176072,0.18971,0.203643,0.217832,0.232237,0.246819,0.261541,0.276364,0.291252,0.306166,0.321072,0.335934,0.350716,0.365385,0.379907,0.394248,0.408375,0.422256,0.435859,0.449152,0.462104,0.474684,0.486862,0.498608,0.509892,0.520686,0.530961,0.54069,0.549845,0.5584,0.56633,0.573611,0.580219,0.586132,0.591329,0.59579,0.599498,0.602436,0.604588,0.605942,0.606488,0.606215,0.605118,0.603192,0.600434,0.596844,0.592427,0.587187,0.581132,0.574273,0.566624,0.558202,0.549026,0.539117,0.528501,0.517206,0.505262,0.492702,0.479562,0.46588,0.451697,0.437057,0.422003,0.406584,0.390847,0.374845,0.358628,0.342249,0.325764,0.309227,0.292692,0.276217,0.259855,0.243663,0.227694,0.212003,0.196642,0.18166,0.167107,0.153028,0.139469,0.126467,0.114062,0.102286,0.0911663,0.080728,0.0709891,0.0619619,0.0536521,0.0460583,0.039171,0.032972,0.0274337,0.022518,0.018176,0.0143473,0.0109599,0.00793156,0.00517175,0.00258706,9.00526e-05,-0.00238663,-0.00487123,-0.00733414,-0.00968611
-0.0109884,-0.00347048,0.00325269,0.00941288,0.0152067,0.0208101,0.0263804,0.032055,0.0379498,0.0441596,0.0507583,0.0578015,0.0653282,0.0733631,0.0819189,0.0909981,0.100595,0.110696,0.121283,0.132333,0.143819,0.155712,0.167981,0.180591,0.193509,0.206699,0.220126,0.233754,0.247546,0.261467,0.275482,0.289554,0.303649,0.317733,0.33177,0.345728,0.359573,0.373272,0.386793,0.400105,0.413176,0.425975,0.438472,0.450637,0.46244,0.473854,0.48485,0.495399,0.505477,0.515055,0.524109,0.532614,0.540546,0.547882,0.554601,0.560681,0.566104,0.570851,0.574905,0.57825,0.580874,0.582763,0.583907,0.584298,0.583929,0.582795,0.580894,0.578225,0.574789,0.570592,0.565639,0.55994,0.553504,0.546347,0.538484,0.529932,0.520715,0.510854,0.500375,0.489307,0.47768,0.465526,0.452879,0.439778,0.426259,0.412363,0.398133,0.383612,0.368844,0.353875,0.338752,0.323524,0.308237,0.292942,0.277685,0.262516,0.247484,0.232635,0.218016,0.203672,0.189648,0.175984,0.162722,0.149899,0.137548,0.125702,0.114387,0.103628,0.0934426,0.0838455,0.0748448,0.0664429,0.0586352,0.05141,0.0447475,0.0386196,0.032989,0.0278087,0.0230224,0.0185647,0.0143618,0.0103347,0.00640263,0.00248915,-0.00146983,-0.00551862,-0.00967931,-0.0139648
-0.0118396,-0.00266791,0.0055243,0.0129856,0.0199253,0.0265257,0.0329463,0.0393259,0.045783,0.0524166,0.0593069,0.0665171,0.0740948,0.0820739,0.0904766,0.0993147,0.108591,0.118302,0.128436,0.138979,0.14991,0.161206,0.172842,0.184789,0.197017,0.209494,0.22219,0.235071,0.248104,0.261256,0.274492,0.28778,0.301086,0.314377,0.32762,0.340783,0.353834,0.366741,0.379473,0.392,0.404291,0.416317,0.428049,0.439458,0.450518,0.461199,0.471477,0.481325,0.490719,0.499634,0.508047,0.515935,0.523277,0.530052,0.536242,0.541827,0.546792,0.551119,0.554796,0.557808,0.560146,0.561798,0.562757,0.563016,0.562571,0.561419,0.559559,0.556993,0.553722,0.549753,0.545092,0.539749,0.533734,0.527062,0.519748,0.511809,0.503265,0.494138,0.484451,0.47423,0.463503,0.452298,0.440647,0.428583,0.416139,0.403352,0.390259,0.376897,0.363306,0.349526,0.335599,0.321565,0.307466,0.293345,0.279244,0.265205,0.251269,0.237478,0.223871,0.210488,0.197365,0.18454,0.172045,0.159913,0.148171,0.136848,0.125964,0.115538,0.105586,0.096118,0.0871378,0.078645,0.0706329,0.0630878,0.0559891,0.0493082,0.0430089,0.0370464,0.0313681,0.0259133,0.0206149,0.015401,0.0101974,0.00493102,-0.00046653,-0.0060579,-0.0119038,-0.0180772
-0.0114092,-0.000888822,0.00852616,0.0170812,0.0249869,0.0324267,0.0395608,0.0465289,0.0534513,0.0604301,0.0675502,0.0748806,0.0824757,0.0903768,0.0986138,0.107206,0.116165,0.125493,0.135187,0.145239,0.155633,0.166354,0.177379,0.188687,0.20025,0.212041,0.224032,0.236194,0.248494,0.260903,0.273388,0.285919,0.298463,0.310989,0.323466,0.335861,0.348146,0.360289,0.37226,0.38403,0.395571,0.406853,0.41785,0.428533,0.438878,0.448859,0.45845,0.467628,0.47637,0.484653,0.492456,0.49976,0.506544,0.51279,0.518482,0.523604,0.528141,0.53208,0.535409,0.538117,0.540195,0.541636,0.542434,0.542585,0.542085,0.540934,0.539132,0.536682,0.533587,0.529855,0.525491,0.520507,0.514913,0.508723,0.50195,0.494612,0.486728,0.478316,0.469399,0.46,0.450143,0.439856,0.429165,0.418099,0.406688,0.394965,0.38296,0.370708,0.358242,0.345597,0.332809,0.319913,0.306944,0.29394,0.280937,0.267969,0.255074,0.242284,0.229635,0.217159,0.204889,0.192854,0.181082,0.1696,0.158432,0.147598,0.137118,0.127005,0.11727,0.10792,0.0989568,0.0903767,0.0821711,0.0743248,0.0668166,0.0596182,0.0526941,0.0460017,0.0394912,0.033106,0.0267834,0.0204561,0.0140531,0.00750139,0.000726909,-0.00634729,-0.0138062,-0.0217545
-0.00958992,0.00199251,0.0123876,0.0218283,0.0305192,0.0386406,0.0463509,0.0537895,0.0610772,0.0683182,0.0756005,0.0829976,0.0905691,0.0983622,0.106413,0.114748,0.123383,0.132329,0.141588,0.151157,0.161027,0.171187,0.18162,0.192306,0.203225,0.214351,0.22566,0.237124,0.248715,0.260405,0.272164,0.283962,0.295769,0.307555,0.31929,0.330944,0.342488,0.353893,0.365129,0.37617,0.386987,0.397553,0.407842,0.417828,0.427488,0.436796,0.44573,0.454268,0.462388,0.47007,0.477294,0.484044,0.490301,0.496049,0.501274,0.505962,0.510102,0.513681,0.51669,0.519122,0.520968,0.522224,0.522885,0.522949,0.522415,0.521284,0.519557,0.517238,0.514332,0.510845,0.506786,0.502165,0.496992,0.491281,0.485044,0.478299,0.471061,0.46335,0.455184,0.446584,0.437573,0.428174,0.41841,0.408308,0.397893,0.387192,0.376234,0.365046,0.353658,0.342099,0.3304,0.31859,0.3067,0.29476,0.282802,0.270854,0.258946,0.247108,0.235368,0.223753,0.212289,0.201001,0.189913,0.179046,0.168419,0.158048,0.147947,0.138128,0.128597,0.119359,0.110411,0.101749,0.0933613,0.0852331,0.0773419,0.0696599,0.0621525,0.054779,0.0474921,0.0402382,0.032958,0.0255871,0.0180562,0.010292,0.00221604,-0.00625741,-0.0152262,-0.0248084
-0.00632472,0.00605816,0.0172034,0.0273282,0.0366272,0.0452745,0.0534247,0.0612153,0.0687666,0.0761836,0.0835565,0.0909617,0.0984627,0.106111,0.113949,0.122006,0.130306,0.138863,0.147686,0.156775,0.166128,0.175737,0.185589,0.195669,0.205958,0.216437,0.227081,0.237868,0.24877,0.259761,0.270814,0.281901,0.292993,0.304062,0.315078,0.326014,0.336841,0.347532,0.358059,0.368394,0.378513,0.388388,0.397996,0.407312,0.416314,0.424977,0.433282,0.441207,0.448734,0.455844,0.462519,0.468744,0.474503,0.479783,0.48457,0.488854,0.492625,0.495872,0.49859,0.500772,0.502412,0.503507,0.504055,0.504055,0.503508,0.502415,0.50078,0.498607,0.495901,0.492671,0.488924,0.484671,0.479921,0.474688,0.468984,0.462824,0.456224,0.449199,0.441768,0.433949,0.425761,0.417225,0.408361,0.399191,0.389737,0.380024,0.370073,0.359909,0.349556,0.33904,0.328384,0.317615,0.306756,0.295834,0.284873,0.273898,0.262932,0.252,0.241125,0.230328,0.219631,0.209054,0.198615,0.188331,0.178216,0.168284,0.158544,0.149003,0.139666,0.130533,0.121602,0.112864,0.104308,0.095917,0.0876688,0.0795359,0.0714849,0.0634764,0.0554654,0.0474009,0.0392262,0.0308792,0.0222923,0.0133921,0.00409837,-0.00567845,-0.0160408,-0.0271096
-0.00158834,0.0113588,0.0230409,0.0336585,0.043395,0.0524164,0.0608726,0.0688975,0.0766101,0.0841152,0.0915039,0.0988547,0.106234,0.113697,0.121288,0.129043,0.13699,0.145147,0.153526,0.162134,0.170971,0.180033,0.189311,0.198795,0.208467,0.218311,0.228306,0.23843,0.24866,0.258971,0.269337,0.279732,0.290128,0.3005,0.310818,0.321057,0.331189,0.341188,0.351028,0.360682,0.370125,0.379335,0.388286,0.396957,0.405325,0.41337,0.421072,0.428412,0.435373,0.441938,0.448092,0.45382,0.459109,0.463948,0.468326,0.472234,0.475663,0.478607,0.481059,0.483017,0.484476,0.485435,0.485893,0.485851,0.48531,0.484274,0.482748,0.480735,0.478244,0.47528,0.471854,0.467974,0.463651,0.458896,0.453723,0.448144,0.442172,0.435824,0.429114,0.422059,0.414675,0.406979,0.39899,0.390726,0.382204,0.373445,0.364468,0.355293,0.345938,0.336425,0.326773,0.317003,0.307135,0.297188,0.287182,0.277138,0.267073,0.257007,0.246958,0.236943,0.226978,0.217078,0.207258,0.197529,0.187904,0.178389,0.168993,0.159718,0.150567,0.141538,0.132625,0.12382,0.115109,0.106474,0.0978946,0.0893424,0.0807853,0.0721855,0.0634999,0.0546798,0.045671,0.0364137,0.026842,0.0168839,0.00645934,-0.00452086,-0.0161584,-0.0285705
0.00462415,0.0179229,0.0299453,0.0408765,0.050888,0.0601376,0.0687692,0.0769127,0.0846847,0.092189,0.099517,0.106748,0.11395,0.121182,0.12849,0.135914,0.143485,0.151225,0.159149,0.167268,0.175586,0.184102,0.192811,0.201703,0.210766,0.219985,0.229342,0.238817,0.248389,0.258034,0.267729,0.277448,0.287167,0.296859,0.306499,0.31606,0.325517,0.334844,0.344017,0.353011,0.361802,0.370368,0.378685,0.386734,0.394493,0.401944,0.409069,0.415849,0.42227,0.428316,0.433974,0.439232,0.444079,0.448504,0.452499,0.456057,0.459171,0.461837,0.46405,0.465808,0.46711,0.467956,0.468346,0.468283,0.467769,0.466808,0.465407,0.46357,0.461305,0.458619,0.455522,0.452022,0.44813,0.443856,0.439212,0.43421,0.428862,0.423182,0.417182,0.410877,0.40428,0.397406,0.390271,0.382888,0.375273,0.367441,0.359408,0.351189,0.3428,0.334256,0.325573,0.316766,0.307851,0.298843,0.289756,0.280606,0.271407,0.262172,0.252915,0.243649,0.234385,0.225135,0.215907,0.206711,0.197554,0.188441,0.179375,0.170358,0.161388,0.152461,0.143571,0.134707,0.125854,0.116996,0.10811,0.0991688,0.0901416,0.080992,0.0716788,0.0621556,0.0523705,0.0422663,0.0317795,0.0208404,0.00937158,-0.00271346,-0.0155119,-0.0291338
0.0123047,0.0257631,0.0379455,0.0490229,0.0591561,0.0684942,0.077175,0.0853239,0.0930547,0.10047,0.107659,0.114703,0.121672,0.128623,0.135608,0.142668,0.149836,0.157138,0.164592,0.172212,0.180004,0.187971,0.196109,0.204412,0.212871,0.221472,0.230199,0.239035,0.24796,0.256952,0.265988,0.275047,0.284103,0.293132,0.302109,0.31101,0.319809,0.328484,0.33701,0.345363,0.353522,0.361465,0.36917,0.376619,0.383792,0.390672,0.397242,0.403486,0.409391,0.414943,0.420131,0.424944,0.429373,0.43341,0.437048,0.440281,0.443105,0.445517,0.447515,0.449098,0.450266,0.451021,0.451364,0.4513,0.450831,0.449964,0.448704,0.447057,0.445032,0.442635,0.439876,0.436763,0.433306,0.429516,0.425402,0.420975,0.416247,0.411227,0.405928,0.400362,0.394539,0.388472,0.382172,0.375651,0.36892,0.361992,0.354877,0.347588,0.340136,0.332532,0.324787,0.316912,0.308919,0.300817,0.292618,0.284331,0.275966,0.267532,0.259039,0.250494,0.241906,0.233281,0.224624,0.215942,0.207237,0.198511,0.189766,0.180999,0.172207,0.163385,0.154523,0.14561,0.136631,0.127568,0.1184,0.109099,0.099636,0.0899761,0.0800799,0.0699032,0.0593969,0.0485064,0.0371716,0.0253258,0.0128956,-0.000200609,-0.0140536,-0.0287641
0.0214371,0.0348811,0.0470578,0.0581259,0.0682361,0.0775298,0.0861383,0.0941828,0.101774,0.109011,0.115985,0.122774,0.129449,0.13607,0.142688,0.149348,0.156084,0.162923,0.169889,0.176995,0.184251,0.191661,0.199225,0.206939,0.214795,0.222782,0.230885,0.239089,0.247375,0.255724,0.264114,0.272524,0.28093,0.28931,0.29764,0.305896,0.314055,0.322093,0.329989,0.33772,0.345266,0.352605,0.359718,0.366588,0.373195,0.379525,0.385563,0.391294,0.396705,0.401787,0.406528,0.410919,0.414954,0.418626,0.42193,0.424863,0.427421,0.429603,0.431409,0.432839,0.433895,0.43458,0.434897,0.434851,0.434446,0.433689,0.432586,0.431144,0.42937,0.427273,0.424862,0.422144,0.419128,0.415825,0.412242,0.40839,0.404278,0.399915,0.39531,0.390474,0.385414,0.38014,0.374661,0.368984,0.36312,0.357075,0.350857,0.344475,0.337936,0.331246,0.324414,0.317445,0.310347,0.303126,0.295787,0.288336,0.28078,0.273122,0.265368,0.257522,0.249588,0.241569,0.233466,0.225281,0.217016,0.208668,0.200236,0.191716,0.183102,0.174387,0.16556,0.156609,0.147519,0.138271,0.128844,0.119211,0.109345,0.0992126,0.0887754,0.0779923,0.0668168,0.0551975,0.0430778,0.0303953,0.0170815,0.00306068,-0.01175,-0.0274415
0.032,0.0452709,0.0572892,0.0682031,0.0781544,0.0872773,0.0956972,0.103531,0.110885,0.117859,0.124539,0.131004,0.137326,0.143564,0.149771,0.155991,0.162262,0.168614,0.175068,0.181643,0.18835,0.195194,0.202179,0.2093,0.216552,0.223925,0.231408,0.238984,0.246639,0.254352,0.262105,0.269877,0.277645,0.285387,0.293083,0.300707,0.30824,0.315658,0.32294,0.330066,0.337015,0.343768,0.350308,0.356616,0.362678,0.368478,0.374004,0.379242,0.384181,0.388813,0.393129,0.397121,0.400785,0.404115,0.407107,0.409761,0.412075,0.414049,0.415684,0.416983,0.417948,0.418583,0.418893,0.418883,0.41856,0.417929,0.416998,0.415774,0.414265,0.412479,0.410425,0.408109,0.405541,0.402728,0.39968,0.396403,0.392906,0.389197,0.385282,0.381168,0.376863,0.372372,0.367701,0.362857,0.357843,0.352665,0.347327,0.341833,0.336187,0.330392,0.324451,0.318367,0.312142,0.305778,0.299278,0.292642,0.285873,0.278972,0.271938,0.264772,0.257475,0.250046,0.242484,0.234786,0.226951,0.218974,0.210851,0.202576,0.194142,0.185539,0.176755,0.167778,0.158592,0.149179,0.139516,0.129579,0.119342,0.108771,0.0978328,0.0864872,0.0746911,0.0623965,0.0495509,0.0360965,0.0219702,0.00710336,-0.00857883,-0.0251571
0.043969,0.0569212,0.0686398,0.0792642,0.0889287,0.0977607,0.105881,0.113401,0.120425,0.127049,0.133359,0.139433,0.14534,0.151141,0.15689,0.162632,0.168404,0.174238,0.180157,0.186181,0.192323,0.19859,0.204985,0.211507,0.218152,0.224911,0.231774,0.238726,0.245754,0.252838,0.25996,0.267102,0.274241,0.281357,0.288429,0.295435,0.302354,0.309165,0.315848,0.322383,0.328751,0.334935,0.340917,0.346683,0.352217,0.357505,0.362537,0.367302,0.371789,0.375992,0.379902,0.383516,0.386828,0.389837,0.392539,0.394935,0.397026,0.398812,0.400296,0.401483,0.402376,0.40298,0.403301,0.403345,0.403119,0.40263,0.401886,0.400894,0.399661,0.398197,0.396508,0.394603,0.392488,0.390172,0.38766,0.384961,0.38208,0.379022,0.375793,0.372398,0.368841,0.365126,0.361255,0.357232,0.353057,0.348734,0.344261,0.339641,0.334873,0.329956,0.32489,0.319673,0.314304,0.308781,0.303103,0.297266,0.291268,0.285106,0.278778,0.272279,0.265607,0.258757,0.251726,0.244507,0.237096,0.229487,0.221672,0.213644,0.205393,0.196908,0.188178,0.179188,0.169922,0.160361,0.150486,0.140271,0.129692,0.118717,0.107314,0.0954475,0.0830758,0.0701553,0.0566377,0.0424702,0.0275958,0.0119527,-0.00452539,-0.0219092
0.0573181,0.0698169,0.0811044,0.0913127,0.10057,0.108997,0.11671,0.123818,0.130421,0.136613,0.142477,0.14809,0.153522,0.158833,0.164077,0.169297,0.174535,0.17982,0.185179,0.19063,0.196189,0.201864,0.207659,0.213574,0.219606,0.225748,0.23199,0.23832,0.244722,0.251181,0.257678,0.264196,0.270714,0.277213,0.283671,0.290069,0.296386,0.302602,0.308698,0.314656,0.320458,0.326087,0.331528,0.336765,0.341787,0.346582,0.351138,0.355446,0.359499,0.36329,0.366815,0.370068,0.373049,0.375754,0.378185,0.380343,0.382229,0.383846,0.385199,0.386292,0.38713,0.38772,0.388069,0.388183,0.38807,0.387737,0.387193,0.386445,0.3855,0.384368,0.383054,0.381567,0.379913,0.378098,0.376128,0.374008,0.371744,0.369338,0.366794,0.364115,0.361303,0.358358,0.355281,0.352071,0.348728,0.345249,0.341633,0.337875,0.333973,0.329923,0.325719,0.321358,0.316832,0.312138,0.307269,0.302218,0.29698,0.291547,0.285914,0.280073,0.274018,0.267741,0.261234,0.254491,0.247503,0.240261,0.232756,0.224978,0.216916,0.208559,0.199893,0.190903,0.181573,0.171885,0.161819,0.151352,0.140458,0.129111,0.117278,0.104928,0.0920222,0.0785209,0.06438,0.0495523,0.0339866,0.0176284,0.000419479,-0.017701
0.0720204,0.0839407,0.0946742,0.104347,0.113082,0.120997,0.128202,0.134802,0.140895,0.146573,0.151917,0.157003,0.1619,0.166666,0.171355,0.176013,0.180678,0.185382,0.190153,0.195008,0.199965,0.205032,0.210214,0.215512,0.220925,0.226444,0.232062,0.237768,0.243546,0.249382,0.255258,0.261158,0.267061,0.272949,0.278802,0.2846,0.290325,0.295957,0.301478,0.30687,0.312118,0.317206,0.322118,0.326843,0.331368,0.335682,0.339778,0.343646,0.347281,0.350678,0.353833,0.356743,0.359409,0.36183,0.364007,0.365943,0.367642,0.369107,0.370345,0.37136,0.372161,0.372753,0.373144,0.373343,0.373357,0.373193,0.372862,0.372369,0.371724,0.370933,0.370003,0.368942,0.367755,0.366447,0.365023,0.363487,0.361841,0.360089,0.358231,0.356267,0.354197,0.35202,0.349733,0.347333,0.344815,0.342176,0.339409,0.336507,0.333465,0.330273,0.326924,0.323409,0.31972,0.315846,0.311778,0.307507,0.303021,0.298312,0.293369,0.288181,0.282739,0.277031,0.271049,0.264781,0.258216,0.251344,0.244154,0.236633,0.228769,0.220549,0.21196,0.202985,0.193608,0.183812,0.173577,0.16288,0.1517,0.140009,0.127779,0.11498,0.101578,0.0875359,0.0728154,0.057374,0.0411667,0.0241458,0.00626138,-0.0125384
0.088049,0.0992733,0.109337,0.118363,0.126468,0.133766,0.140364,0.146365,0.151864,0.156948,0.1617,0.166192,0.170493,0.17466,0.178747,0.182798,0.186853,0.190943,0.195096,0.199332,0.203665,0.208106,0.212661,0.217331,0.222115,0.227005,0.231995,0.237074,0.242227,0.247441,0.252699,0.257983,0.263276,0.268559,0.273813,0.27902,0.284161,0.289218,0.294173,0.299011,0.303716,0.308273,0.31267,0.316894,0.320935,0.324784,0.328432,0.331875,0.335107,0.338124,0.340924,0.343507,0.345873,0.348024,0.349963,0.351694,0.35322,0.354549,0.355687,0.356641,0.357417,0.358026,0.358474,0.35877,0.358923,0.358942,0.358834,0.358608,0.358271,0.357831,0.357294,0.356666,0.355953,0.355158,0.354285,0.353336,0.352313,0.351216,0.350045,0.348797,0.347471,0.346061,0.344563,0.342971,0.341277,0.339475,0.337554,0.335505,0.333318,0.330982,0.328484,0.325813,0.322956,0.319899,0.31663,0.313135,0.3094,0.305413,0.301158,0.296623,0.291795,0.28666,0.281204,0.275414,0.269279,0.262783,0.255914,0.248659,0.241004,0.232934,0.224434,0.21549,0.206084,0.196199,0.185816,0.174914,0.163471,0.151464,0.138867,0.12565,0.111786,0.0972398,0.081978,0.0659635,0.0491571,0.031518,0.0130039,-0.0064285
0.105377,0.115795,0.12508,0.133351,0.140723,0.147306,0.153204,0.158518,0.163338,0.167753,0.171841,0.175674,0.179319,0.182833,0.186269,0.18967,0.193076,0.196519,0.200025,0.203614,0.207301,0.211098,0.21501,0.219039,0.223183,0.227437,0.231793,0.236241,0.240767,0.245358,0.249998,0.254669,0.259355,0.264038,0.268698,0.27332,0.277883,0.282373,0.286771,0.291063,0.295235,0.299272,0.303163,0.306898,0.310466,0.313861,0.317076,0.320105,0.322946,0.325597,0.328056,0.330325,0.332405,0.3343,0.336014,0.337553,0.338921,0.340127,0.341178,0.342082,0.342849,0.343485,0.344002,0.344408,0.344711,0.344922,0.345048,0.345098,0.345079,0.344998,0.344862,0.344675,0.344441,0.344165,0.343848,0.343492,0.343096,0.342658,0.342177,0.341648,0.341067,0.340426,0.339718,0.338935,0.338067,0.337101,0.336028,0.334832,0.333502,0.332021,0.330375,0.328548,0.326524,0.324286,0.321818,0.319101,0.31612,0.312857,0.309296,0.305418,0.301209,0.296651,0.291728,0.286425,0.280727,0.274617,0.26808,0.261103,0.253668,0.245762,0.237369,0.228471,0.219054,0.2091,0.19859,0.187505,0.175825,0.163527,0.150589,0.136984,0.122687,0.107669,0.0918995,0.0753465,0.057977,0.0397565,0.0206499,0.000622009
0.123978,0.133484,0.141887,0.149303,0.155843,0.161616,0.166724,0.171264,0.175327,0.178997,0.182351,0.185461,0.188392,0.1912,0.193935,0.196644,0.199362,0.202122,0.20495,0.207866,0.210885,0.214017,0.21727,0.220643,0.224137,0.227745,0.23146,0.235271,0.239167,0.243133,0.247154,0.251213,0.255294,0.259379,0.26345,0.26749,0.271482,0.27541,0.279259,0.283012,0.286658,0.290184,0.293579,0.296834,0.29994,0.302891,0.305682,0.308309,0.31077,0.313065,0.315195,0.317161,0.318967,0.320618,0.322119,0.323477,0.324699,0.325794,0.326769,0.327635,0.328401,0.329077,0.329673,0.330198,0.330662,0.331074,0.331443,0.331777,0.332084,0.33237,0.332641,0.332901,0.333154,0.333403,0.333647,0.333888,0.334123,0.33435,0.334563,0.334757,0.334924,0.335056,0.335143,0.335172,0.335132,0.335008,0.334785,0.334447,0.333977,0.333357,0.332568,0.331591,0.330405,0.328992,0.32733,0.3254,0.323179,0.320649,0.317788,0.314577,0.310996,0.307026,0.302647,0.297842,0.292593,0.286882,0.280692,0.274006,0.266808,0.259082,0.250811,0.241979,0.23257,0.222566,0.21195,0.200704,0.188809,0.176245,0.162991,0.149024,0.134322,0.118859,0.10261,0.0855476,0.0676445,0.0488723,0.0292025,0.00860744
0.143826,0.15232,0.159742,0.166204,0.171819,0.176692,0.180922,0.184607,0.187834,0.190686,0.193239,0.195563,0.197722,0.19977,0.201758,0.203729,0.205721,0.207763,0.209882,0.212098,0.214424,0.216872,0.219446,0.22215,0.224979,0.227931,0.230997,0.234166,0.237426,0.240764,0.244165,0.247611,0.251088,0.254576,0.25806,0.261523,0.264948,0.268319,0.271623,0.274845,0.277972,0.280993,0.2839,0.286682,0.289333,0.291849,0.294225,0.296458,0.29855,0.300499,0.302308,0.303981,0.305523,0.306939,0.308237,0.309424,0.310509,0.311501,0.31241,0.313247,0.314022,0.314746,0.315429,0.316081,0.316713,0.317334,0.317954,0.318579,0.319218,0.319878,0.320562,0.321275,0.322021,0.322799,0.323611,0.324455,0.325326,0.326222,0.327135,0.328057,0.328979,0.329889,0.330776,0.331624,0.332419,0.333143,0.333778,0.334305,0.334703,0.334952,0.335028,0.33491,0.334574,0.333995,0.333152,0.332018,0.33057,0.328785,0.326639,0.324107,0.321169,0.317801,0.313982,0.30969,0.304906,0.29961,0.293783,0.287407,0.280464,0.272936,0.264807,0.256059,0.246677,0.236644,0.225944,0.214558,0.20247,0.189662,0.176114,0.161809,0.146725,0.130842,0.114138,0.0965904,0.0781775,0.0588767,0.0386659,0.0175241
0.164895,0.172282,0.178627,0.184044,0.188642,0.192526,0.195796,0.198545,0.200861,0.202824,0.20451,0.205987,0.207316,0.208553,0.209746,0.210937,0.212162,0.213452,0.21483,0.216317,0.217927,0.219668,0.221546,0.223563,0.225716,0.228,0.230407,0.232926,0.235545,0.238251,0.241028,0.24386,0.246731,0.249624,0.252522,0.255409,0.25827,0.261089,0.263851,0.266545,0.269159,0.271681,0.274105,0.276421,0.278624,0.280711,0.282679,0.284527,0.286255,0.287865,0.289362,0.290749,0.292034,0.293223,0.294325,0.295348,0.296303,0.297201,0.298051,0.298866,0.299656,0.300434,0.301211,0.301997,0.302803,0.303639,0.304514,0.305436,0.306413,0.307451,0.308554,0.309725,0.310968,0.312282,0.313666,0.315118,0.316632,0.318202,0.31982,0.321477,0.32316,0.324857,0.326551,0.328227,0.329866,0.331447,0.332951,0.334354,0.335632,0.336762,0.337717,0.338471,0.338998,0.33927,0.33926,0.33894,0.338282,0.337259,0.335845,0.334012,0.331735,0.328988,0.325747,0.321989,0.31769,0.31283,0.307386,0.30134,0.294672,0.287363,0.279396,0.270754,0.261421,0.25138,0.240615,0.229111,0.216851,0.20382,0.190001,0.175378,0.159933,0.14365,0.126511,0.108498,0.0895942,0.0697822,0.049046,0.0273709
0.18716,0.193347,0.198524,0.202805,0.2063,0.209112,0.21134,0.213076,0.214407,0.215413,0.216167,0.216736,0.21718,0.217554,0.217904,0.218272,0.218692,0.219194,0.219801,0.220531,0.221398,0.222411,0.223574,0.224888,0.226349,0.227953,0.229691,0.231552,0.233523,0.235591,0.237741,0.239955,0.242219,0.244516,0.246828,0.249141,0.251438,0.253706,0.255931,0.2581,0.260203,0.262231,0.264175,0.26603,0.267791,0.269454,0.271018,0.272485,0.273855,0.275132,0.276322,0.277429,0.278462,0.27943,0.280341,0.281206,0.282036,0.282843,0.283639,0.284436,0.285247,0.286084,0.286958,0.287882,0.288866,0.28992,0.291055,0.292278,0.293596,0.295016,0.296541,0.298176,0.29992,0.301774,0.303735,0.3058,0.307962,0.310213,0.312545,0.314943,0.317396,0.319888,0.3224,0.324913,0.327407,0.329859,0.332244,0.334537,0.336711,0.338738,0.340589,0.342234,0.343643,0.344784,0.345628,0.346142,0.346296,0.346058,0.345398,0.344287,0.342694,0.340593,0.337955,0.334754,0.330964,0.326563,0.321527,0.315835,0.309465,0.302399,0.294617,0.286104,0.276842,0.266815,0.256008,0.244406,0.231996,0.218762,0.204691,0.189769,0.173982,0.157316,0.139758,0.121295,0.101914,0.0816026,0.0603508,0.0381497
0.210597,0.215495,0.219416,0.222474,0.224781,0.226439,0.227546,0.228194,0.22847,0.228451,0.22821,0.227812,0.227317,0.226777,0.226238,0.22574,0.225316,0.224995,0.224798,0.224744,0.224844,0.225105,0.225533,0.226126,0.226881,0.227792,0.22885,0.230043,0.231359,0.232783,0.2343,0.235893,0.237547,0.239245,0.240971,0.242708,0.244443,0.246161,0.247848,0.249495,0.25109,0.252625,0.254093,0.255489,0.256809,0.258052,0.259217,0.260305,0.261321,0.262269,0.263154,0.263984,0.264769,0.265517,0.266241,0.26695,0.267658,0.268378,0.269122,0.269904,0.270737,0.271634,0.272608,0.273671,0.274835,0.27611,0.277506,0.279031,0.280693,0.282498,0.284448,0.286548,0.288797,0.291195,0.293738,0.296421,0.299236,0.302176,0.305227,0.308376,0.311608,0.314904,0.318245,0.321609,0.324973,0.328309,0.331593,0.334793,0.337881,0.340825,0.343593,0.346151,0.348465,0.350501,0.352223,0.353597,0.354589,0.355163,0.355286,0.354924,0.354045,0.352617,0.35061,0.347994,0.344743,0.340829,0.336229,0.330917,0.324873,0.318075,0.310505,0.302145,0.292978,0.282988,0.272161,0.260484,0.247943,0.234525,0.220221,0.205017,0.188904,0.171871,0.153908,0.135006,0.115157,0.094354,0.0725915,0.0498661