-0,-0,-0,-0,-0,-0,-0,-0,-0,-0,-0,-0,-0,-0,-0,-0,-0,-0,-0,-0,-0,-0,-0,-0,-0,-0,-0,-0,-0,-0,-0,-0,-0,-0,-0,-0,-0,-0,-0,-0,-0,-0,-0,-0,-0,-0,-0,-0,-0,-0,-0,-0,-0,-0,-0,-0,-0,-0,-0,-0,-0,-0,-0,-0,-0,-0,-0,-0,-0,-0,-0,-0,-0,-0,-0,-0,-0,-0,-0,-0,-0,-0,-0,-0,-0,-0,-0,-0,-0,-0,-0,-0,-0,-0,-0,-0,-0,-0,-0,-0,-0,-0,-0,-0,-0,-0,-0,-0,-0,-0,-0,-0,-0,-0,-0,-0,-0,-0,-0,-0,-0,-0,-0,-0,-0,-0,-0,-0
-0,2.33119e-08,7.99227e-08,1.43687e-07,1.95722e-07,2.24601e-07,2.23961e-07,1.90599e-07,1.23274e-07,2.1969e-08,-1.12556e-07,-2.79044e-07,-4.75932e-07,-7.01461e-07,-9.53771e-07,-1.23095e-06,-1.53108e-06,-1.85225e-06,-2.19262e-06,-2.55037e-06,-2.92375e-06,-3.31109e-06,-3.71078e-06,-4.12128e-06,-4.54112e-06,-4.96892e-06,-5.40335e-06,-5.84313e-06,-6.28706e-06,-6.73401e-06,-7.18286e-06,-7.63258e-06,-8.08215e-06,-8.53062e-06,-8.97705e-06,-9.42055e-06,-9.86024e-06,-1.02953e-05,-1.07248e-05,-1.1148e-05,-1.15642e-05,-1.19724e-05,-1.2372e-05,-1.27621e-05,-1.31419e-05,-1.35108e-05,-1.3868e-05,-1.42126e-05,-1.4544e-05,-1.48613e-05,-1.51639e-05,-1.54509e-05,-1.57216e-05,-1.59754e-05,-1.62114e-05,-1.64289e-05,-1.66273e-05,-1.68059e-05,-1.69639e-05,-1.71008e-05,-1.7216e-05,-1.73089e-05,-1.73789e-05,-1.74256e-05,-1.74484e-05,-1.74471e-05,-1.74212e-05,-1.73704e-05,-1.72946e-05,-1.71935e-05,-1.70671e-05,-1.69154e-05,-1.67385e-05,-1.65365e-05,-1.63096e-05,-1.60582e-05,-1.57827e-05,-1.54836e-05,-1.51616e-05,-1.48174e-05,-1.44518e-05,-1.40656e-05,-1.366e-05,-1.3236e-05,-1.27947e-05,-1.23376e-05,-1.1866e-05,-1.13814e-05,-1.08852e-05,-1.03792e-05,-9.865e-06,-9.34436e-06,-8.81912e-06,-8.29111e-06,-7.76226e-06,-7.23448e-06,-6.70975e-06,-6.19003e-06,-5.6773e-06,-5.17355e-06,-4.68074e-06,-4.20081e-06,-3.73568e-06,-3.28721e-06,-2.85722e-06,-2.44748e-06,-2.05966e-06,-1.69536e-06,-1.35609e-06,-1.04326e-06,-7.58144e-07,-5.01889e-07,-2.75492e-07,-7.97752e-08,8.46391e-08,2.17362e-07,3.18284e-07,3.87634e-07,4.26067e-07,4.34781e-07,4.15693e-07,3.71691e-07,3.07027e-07,2.27895e-07,1.43276e-07,6.59666e-08,1.28726e-08,-0
-0,7.99661e-08,2.39336e-07,4.05414e-07,5.24817e-07,5.62149e-07,4.95599e-07,3.12881e-07,8.22081e-09,-4.19744e-07,-9.69382e-07,-1.63705e-06,-2.41774e-06,-3.30559e-06,-4.29416e-06,-5.37671e-06,-6.54637e-06,-7.79623e-06,-9.11948e-06,-1.05094e-05,-1.19595e-05,-1.34635e-05,-1.50153e-05,-1.66091e-05,-1.82393e-05,-1.99004e-05,-2.15876e-05,-2.32957e-05,-2.50202e-05,-2.67566e-05,-2.85007e-05,-3.02483e-05,-3.19955e-05,-3.37384e-05,-3.54736e-05,-3.71973e-05,-3.89063e-05,-4.0597e-05,-4.22663e-05,-4.39109e-05,-4.55277e-05,-4.71136e-05,-4.86654e-05,-5.01802e-05,-5.1655e-05,-5.30867e-05,-5.44723e-05,-5.5809e-05,-5.70936e-05,-5.83234e-05,-5.94953e-05,-6.06065e-05,-6.1654e-05,-6.26352e-05,-6.35471e-05,-6.43871e-05,-6.51524e-05,-6.58405e-05,-6.64488e-05,-6.69749e-05,-6.74165e-05,-6.77715e-05,-6.80378e-05,-6.82135e-05,-6.8297e-05,-6.82868e-05,-6.81815e-05,-6.79801e-05,-6.76819e-05,-6.72862e-05,-6.67928e-05,-6.62018e-05,-6.55134e-05,-6.47284e-05,-6.38476e-05,-6.28725e-05,-6.18048e-05,-6.06464e-05,-5.93999e-05,-5.80679e-05,-5.66536e-05,-5.51607e-05,-5.35929e-05,-5.19546e-05,-5.02503e-05,-4.84851e-05,-4.66641e-05,-4.47932e-05,-4.28781e-05,-4.0925e-05,-3.89406e-05,-3.69314e-05,-3.49043e-05,-3.28665e-05,-3.08253e-05,-2.87879e-05,-2.67618e-05,-2.47547e-05,-2.2774e-05,-2.08271e-05,-1.89217e-05,-1.70651e-05,-1.52646e-05,-1.35271e-05,-1.18597e-05,-1.02689e-05,-8.7611e-06,-7.34231e-06,-6.01817e-06,-4.79389e-06,-3.67421e-06,-2.66332e-06,-1.7648e-06,-9.8152e-07,-3.15556e-07,2.31967e-07,6.61036e-07,9.72987e-07,1.1708e-06,1.25954e-06,1.2469e-06,1.144e-06,9.66501e-07,7.35997e-07,4.81823e-07,2.42611e-07,6.58585e-08,-0
-0,1.43963e-07,4.05957e-07,6.55041e-07,7.95961e-07,7.63262e-07,5.14564e-07,2.45624e-08,-7.19707e-07,-1.7224e-06,-2.98145e-06,-4.49041e-06,-6.23976e-06,-8.21796e-06,-1.04121e-05,-1.28083e-05,-1.53925e-05,-1.81502e-05,-2.10671e-05,-2.4129e-05,-2.7322e-05,-3.06327e-05,-3.40481e-05,-3.75554e-05,-4.11427e-05,-4.47982e-05,-4.85109e-05,-5.227e-05,-5.60654e-05,-5.98871e-05,-6.37259e-05,-6.75726e-05,-7.14186e-05,-7.52554e-05,-7.9075e-05,-8.28695e-05,-8.66313e-05,-9.03529e-05,-9.4027e-05,-9.76465e-05,-0.000101204,-0.000104694,-0.000108108,-0.00011144,-0.000114684,-0.000117832,-0.000120878,-0.000123815,-0.000126637,-0.000129338,-0.000131912,-0.00013435,-0.000136649,-0.0001388,-0.000140799,-0.000142639,-0.000144314,-0.00014582,-0.000147149,-0.000148297,-0.00014926,-0.000150032,-0.000150609,-0.000150987,-0.000151162,-0.000151132,-0.000150893,-0.000150443,-0.000149781,-0.000148906,-0.000147817,-0.000146514,-0.000144998,-0.00014327,-0.000141334,-0.000139191,-0.000136846,-0.000134303,-0.000131567,-0.000128645,-0.000125543,-0.00012227,-0.000118834,-0.000115243,-0.000111509,-0.000107641,-0.000103653,-9.95548e-05,-9.53606e-05,-9.10836e-05,-8.67378e-05,-8.23378e-05,-7.78986e-05,-7.34357e-05,-6.89647e-05,-6.45016e-05,-6.00627e-05,-5.56642e-05,-5.13225e-05,-4.70537e-05,-4.28742e-05,-3.87998e-05,-3.48463e-05,-3.10288e-05,-2.73624e-05,-2.38612e-05,-2.05389e-05,-1.74084e-05,-1.44818e-05,-1.17702e-05,-9.28353e-06,-7.03071e-06,-5.01913e-06,-3.25464e-06,-1.7413e-06,-4.81054e-07,5.266e-07,1.28511e-06,1.80148e-06,2.08707e-06,2.15867e-06,2.03987e-06,1.76291e-06,1.3708e-06,9.19863e-07,4.81662e-07,1.42949e-07,-0
-0,1.96541e-07,5.26662e-07,7.97666e-07,8.69655e-07,6.44693e-07,5.7515e-08,-9.32265e-07,-2.3464e-06,-4.19289e-06,-6.46963e-06,-9.1672e-06,-1.2271e-05,-1.57626e-05,-1.96213e-05,-2.38246e-05,-2.83491e-05,-3.31708e-05,-3.82657e-05,-4.36102e-05,-4.91806e-05,-5.49542e-05,-6.09087e-05,-6.70227e-05,-7.32752e-05,-7.96464e-05,-8.61169e-05,-9.26684e-05,-9.9283e-05,-0.000105944,-0.000112634,-0.000119339,-0.000126042,-0.000132729,-0.000139387,-0.000146,-0.000152556,-0.000159042,-0.000165444,-0.000171751,-0.00017795,-0.000184029,-0.000189976,-0.00019578,-0.000201428,-0.000206908,-0.00021221,-0.000217323,-0.000222233,-0.000226931,-0.000231406,-0.000235645,-0.000239639,-0.000243376,-0.000246847,-0.00025004,-0.000252946,-0.000255555,-0.000257857,-0.000259844,-0.000261507,-0.000262838,-0.00026383,-0.000264475,-0.000264769,-0.000264704,-0.000264278,-0.000263485,-0.000262324,-0.000260793,-0.00025889,-0.000256617,-0.000253975,-0.000250966,-0.000247595,-0.000243867,-0.000239788,-0.000235367,-0.000230612,-0.000225535,-0.000220148,-0.000214463,-0.000208496,-0.000202263,-0.000195782,-0.00018907,-0.000182148,-0.000175038,-0.00016776,-0.00016034,-0.000152799,-0.000145165,-0.000137463,-0.000129718,-0.000121959,-0.000114213,-0.000106507,-9.88697e-05,-9.13289e-05,-8.39126e-05,-7.66486e-05,-6.95642e-05,-6.26863e-05,-5.60411e-05,-4.96539e-05,-4.35493e-05,-3.77503e-05,-3.22792e-05,-2.71562e-05,-2.24002e-05,-1.80282e-05,-1.40548e-05,-1.04924e-05,-7.35041e-06,-4.63536e-06,-2.34995e-06,-4.92664e-07,9.42997e-07,1.96952e-06,2.60657e-06,2.88259e-06,2.83669e-06,2.52114e-06,2.00416e-06,1.37299e-06,7.36669e-07,2.27501e-07,-0
-0,2.26285e-07,5.65931e-07,7.67353e-07,6.46881e-07,7.42224e-08,-1.03908e-06,-2.74905e-06,-5.0868e-06,-8.06455e-06,-1.16803e-05,-1.59216e-05,-2.0768e-05,-2.61938e-05,-3.21691e-05,-3.86614e-05,-4.56367e-05,-5.30599e-05,-6.08955e-05,-6.91085e-05,-7.76637e-05,-8.65272e-05,-9.56656e-05,-0.000105046,-0.000114638,-0.000124411,-0.000134336,-0.000144384,-0.000154529,-0.000164744,-0.000175005,-0.000185287,-0.000195567,-0.000205822,-0.000216032,-0.000226173,-0.000236226,-0.000246171,-0.000255988,-0.000265657,-0.00027516,-0.000284478,-0.000293593,-0.000302486,-0.00031114,-0.000319536,-0.000327657,-0.000335486,-0.000343004,-0.000350195,-0.000357042,-0.000363528,-0.000369635,-0.000375349,-0.000380653,-0.00038553,-0.000389967,-0.000393948,-0.000397458,-0.000400485,-0.000403016,-0.000405038,-0.00040654,-0.000407513,-0.000407946,-0.000407833,-0.000407165,-0.000405939,-0.000404149,-0.000401793,-0.000398871,-0.000395383,-0.000391332,-0.000386722,-0.000381559,-0.000375852,-0.000369611,-0.000362847,-0.000355576,-0.000347814,-0.000339579,-0.000330891,-0.000321773,-0.00031225,-0.000302348,-0.000292096,-0.000281524,-0.000270664,-0.00025955,-0.000248217,-0.000236701,-0.000225042,-0.000213277,-0.000201447,-0.000189594,-0.000177758,-0.000165982,-0.000154308,-0.000142779,-0.000131436,-0.000120322,-0.000109478,-9.89444e-05,-8.8761e-05,-7.89658e-05,-6.95958e-05,-6.06858e-05,-5.22689e-05,-4.43757e-05,-3.70342e-05,-3.02696e-05,-2.41037e-05,-1.85545e-05,-1.36358e-05,-9.35678e-06,-5.72077e-06,-2.72488e-06,-3.58787e-07,1.39663e-06,2.57085e-06,3.20573e-06,3.358e-06,3.10212e-06,2.53379e-06,1.7736e-06,9.70881e-07,3.07235e-07,-0
-0,2.26698e-07,5.01335e-07,5.20218e-07,5.95623e-08,-1.04115e-06,-2.89235e-06,-5.565e-06,-9.09921e-06,-1.35112e-05,-1.87989e-05,-2.49463e-05,-3.19268e-05,-3.97064e-05,-4.82453e-05,-5.75001e-05,-6.74247e-05,-7.79715e-05,-8.90924e-05,-0.000100739,-0.000112863,-0.000125419,-0.000138358,-0.000151638,-0.000165213,-0.000179043,-0.000193085,-0.000207302,-0.000221654,-0.000236105,-0.000250619,-0.000265164,-0.000279705,-0.000294211,-0.000308651,-0.000322994,-0.000337212,-0.000351276,-0.000365158,-0.000378831,-0.000392267,-0.000405441,-0.000418325,-0.000430894,-0.000443124,-0.000454987,-0.00046646,-0.000477518,-0.000488135,-0.000498288,-0.000507953,-0.000517105,-0.000525722,-0.000533781,-0.000541258,-0.000548132,-0.000554382,-0.000559987,-0.000564927,-0.000569183,-0.000572738,-0.000575573,-0.000577675,-0.000579029,-0.000579622,-0.000579443,-0.000578483,-0.000576735,-0.000574193,-0.000570854,-0.000566716,-0.000561782,-0.000556055,-0.000549542,-0.000542251,-0.000534194,-0.000525386,-0.000515844,-0.000505588,-0.000494641,-0.000483029,-0.000470781,-0.000457929,-0.000444508,-0.000430553,-0.000416106,-0.00040121,-0.000385907,-0.000370247,-0.000354279,-0.000338053,-0.000321623,-0.000305044,-0.000288372,-0.000271663,-0.000254977,-0.000238372,-0.000221907,-0.000205642,-0.000189634,-0.000173944,-0.000158627,-0.000143742,-0.000129342,-0.000115481,-0.000102211,-8.95786e-05,-7.7631e-05,-6.64102e-05,-5.5955e-05,-4.62998e-05,-3.74745e-05,-2.95037e-05,-2.24061e-05,-1.61934e-05,-1.087e-05,-6.43121e-06,-2.86228e-06,-1.36722e-07,1.78576e-06,2.96165e-06,3.46645e-06,3.39816e-06,2.88116e-06,2.07064e-06,1.1575e-06,3.73891e-07,-0
-0,1.94295e-07,3.19445e-07,2.83728e-08,-9.37285e-07,-2.76463e-06,-5.5836e-06,-9.47843e-06,-1.44971e-05,-2.06589e-05,-2.79611e-05,-3.63834e-05,-4.58925e-05,-5.64454e-05,-6.79915e-05,-8.04753e-05,-9.38379e-05,-0.000108018,-0.000122953,-0.000138581,-0.000154839,-0.000171666,-0.000189002,-0.000206787,-0.000224964,-0.000243477,-0.000262272,-0.000281298,-0.000300504,-0.000319842,-0.000339263,-0.000358723,-0.000378178,-0.000397584,-0.000416902,-0.000436089,-0.000455108,-0.000473919,-0.000492486,-0.000510771,-0.000528739,-0.000546353,-0.000563579,-0.000580383,-0.000596729,-0.000612584,-0.000627915,-0.000642688,-0.000656871,-0.00067043,-0.000683335,-0.000695553,-0.000707054,-0.000717805,-0.000727779,-0.000736945,-0.000745276,-0.000752743,-0.000759321,-0.000764984,-0.00076971,-0.000773475,-0.00077626,-0.000778046,-0.000778817,-0.000778557,-0.000777256,-0.000774903,-0.000771492,-0.000767018,-0.000761481,-0.000754882,-0.000747228,-0.000738526,-0.000728789,-0.000718032,-0.000706276,-0.000693543,-0.00067986,-0.000665258,-0.000649771,-0.000633439,-0.000616303,-0.000598408,-0.000579805,-0.000560546,-0.000540688,-0.000520291,-0.000499415,-0.000478129,-0.000456498,-0.000434594,-0.000412489,-0.000390257,-0.000367974,-0.000345717,-0.000323563,-0.000301591,-0.000279878,-0.000258503,-0.000237543,-0.000217073,-0.000197169,-0.000177902,-0.000159343,-0.000141559,-0.000124614,-0.000108567,-9.34754e-05,-7.93886e-05,-6.6352e-05,-5.44044e-05,-4.35776e-05,-3.38955e-05,-2.53732e-05,-1.80157e-05,-1.18166e-05,-6.75659e-06,-2.80115e-06,1.01333e-07,2.02256e-06,3.05748e-06,3.32812e-06,2.98799e-06,2.2271e-06,1.27787e-06,4.22126e-07,-0
-0,1.27402e-07,1.28337e-08,-7.24773e-07,-2.37175e-06,-5.13708e-06,-9.16679e-06,-1.45559e-05,-2.13585e-05,-2.95956e-05,-3.92624e-05,-5.03337e-05,-6.27686e-05,-7.65141e-05,-9.15081e-05,-0.000107682,-0.000124963,-0.000143276,-0.000162542,-0.000182684,-0.000203624,-0.000225284,-0.000247588,-0.000270463,-0.000293836,-0.000317636,-0.000341795,-0.000366246,-0.000390926,-0.000415772,-0.000440724,-0.000465724,-0.000490716,-0.000515645,-0.000540457,-0.000565102,-0.000589528,-0.000613686,-0.000637529,-0.000661008,-0.000684077,-0.000706691,-0.000728804,-0.000750372,-0.000771351,-0.000791697,-0.000811367,-0.000830319,-0.000848511,-0.000865901,-0.000882447,-0.00089811,-0.00091285,-0.000926627,-0.000939403,-0.000951142,-0.000961807,-0.000971363,-0.000979777,-0.000987018,-0.000993055,-0.00099786,-0.00100141,-0.00100367,-0.00100464,-0.00100429,-0.0010026,-0.000999561,-0.000995171,-0.00098942,-0.000982309,-0.00097384,-0.00096402,-0.000952861,-0.000940378,-0.000926591,-0.000911527,-0.000895214,-0.000877687,-0.000858986,-0.000839154,-0.000818241,-0.0007963,-0.00077339,-0.000749575,-0.00072492,-0.000699499,-0.000673387,-0.000646663,-0.000619411,-0.000591717,-0.000563671,-0.000535364,-0.000506891,-0.000478349,-0.000449834,-0.000421445,-0.000393281,-0.000365442,-0.000338027,-0.000311132,-0.000284855,-0.00025929,-0.000234529,-0.00021066,-0.000187769,-0.000165936,-0.000145236,-0.000125741,-0.000107513,-9.06101e-05,-7.50798e-05,-6.09623e-05,-4.82874e-05,-3.70736e-05,-2.7327e-05,-1.90395e-05,-1.21869e-05,-6.72677e-06,-2.59597e-06,2.92621e-07,2.05349e-06,2.83266e-06,2.81248e-06,2.21719e-06,1.31952e-06,4.48605e-07,-0
-0,2.54433e-08,-4.2198e-07,-1.74797e-06,-4.25974e-06,-8.18278e-06,-1.36752e-05,-2.08396e-05,-2.97338e-05,-4.03787e-05,-5.27661e-05,-6.68645e-05,-8.26243e-05,-9.99815e-05,-0.000118862,-0.000139183,-0.000160857,-0.000183792,-0.000207894,-0.00023307,-0.000259224,-0.000286262,-0.000314091,-0.000342622,-0.000371764,-0.000401432,-0.000431541,-0.00046201,-0.000492759,-0.000523712,-0.000554794,-0.000585934,-0.000617061,-0.000648107,-0.000679006,-0.000709694,-0.000740108,-0.000770187,-0.00079987,-0.000829099,-0.000857816,-0.000885963,-0.000913484,-0.000940324,-0.000966428,-0.000991742,-0.00101621,-0.00103979,-0.00106241,-0.00108403,-0.00110461,-0.00112408,-0.00114239,-0.00115951,-0.00117539,-0.00118997,-0.00120321,-0.00121507,-0.00122551,-0.00123449,-0.00124197,-0.00124792,-0.00125231,-0.00125511,-0.00125629,-0.00125583,-0.00125371,-0.00124992,-0.00124444,-0.00123728,-0.00122843,-0.0012179,-0.00120569,-0.00119182,-0.00117631,-0.00115918,-0.00114047,-0.00112021,-0.00109844,-0.00107522,-0.0010506,-0.00102463,-0.000997397,-0.000968958,-0.000939394,-0.00090879,-0.000877234,-0.000844819,-0.000811644,-0.000777811,-0.000743427,-0.000708601,-0.000673448,-0.000638084,-0.000602627,-0.000567197,-0.000531916,-0.000496905,-0.000462288,-0.000428184,-0.000394716,-0.000362,-0.000330154,-0.00029929,-0.000269518,-0.00024094,-0.000213657,-0.000187762,-0.000163339,-0.000140468,-0.000119217,-9.96454e-05,-8.18021e-05,-6.5723e-05,-5.14308e-05,-3.89328e-05,-2.82195e-05,-1.92622e-05,-1.20105e-05,-6.38988e-06,-2.29802e-06,3.98747e-07,1.86991e-06,2.32585e-06,2.02372e-06,1.27451e-06,4.51363e-07,-0
-0,-1.11496e-07,-9.85895e-07,-3.0446e-06,-6.60851e-06,-1.1914e-05,-1.91265e-05,-2.83531e-05,-3.96521e-05,-5.30421e-05,-6.85099e-05,-8.6016e-05,-0.000105501,-0.000126888,-0.000150091,-0.000175011,-0.000201545,-0.000229585,-0.00025902,-0.000289738,-0.000321626,-0.000354573,-0.000388468,-0.000423202,-0.00045867,-0.000494768,-0.000531395,-0.000568452,-0.000605845,-0.000643481,-0.00068127,-0.000719125,-0.000756961,-0.000794697,-0.000832251,-0.000869546,-0.000906505,-0.000943055,-0.000979121,-0.00101463,-0.00104952,-0.00108371,-0.00111714,-0.00114974,-0.00118144,-0.00121218,-0.00124189,-0.00127051,-0.00129797,-0.00132422,-0.00134918,-0.00137281,-0.00139503,-0.0014158,-0.00143505,-0.00145273,-0.00146878,-0.00148315,-0.0014958,-0.00150668,-0.00151574,-0.00152294,-0.00152825,-0.00153162,-0.00153303,-0.00153245,-0.00152987,-0.00152526,-0.00151861,-0.00150991,-0.00149917,-0.00148639,-0.00147158,-0.00145476,-0.00143595,-0.00141519,-0.00139251,-0.00136795,-0.00134157,-0.00131343,-0.0012836,-0.00125214,-0.00121914,-0.00118468,-0.00114886,-0.00111178,-0.00107354,-0.00103426,-0.000994058,-0.000953056,-0.000911381,-0.000869167,-0.00082655,-0.000783671,-0.00074067,-0.000697694,-0.000654887,-0.000612397,-0.000570371,-0.000528954,-0.000488291,-0.000448525,-0.000409794,-0.000372235,-0.000335978,-0.000301149,-0.000267865,-0.000236239,-0.000206372,-0.000178359,-0.000152282,-0.000128212,-0.000106206,-8.63089e-05,-6.85467e-05,-5.29291e-05,-3.94452e-05,-2.80622e-05,-1.87224e-05,-1.13401e-05,-5.7984e-06,-1.94512e-06,4.1177e-07,1.50937e-06,1.63595e-06,1.13815e-06,4.29366e-07,-0
-0,-2.82929e-07,-1.67814e-06,-4.61438e-06,-9.41923e-06,-1.6334e-05,-2.55272e-05,-3.71059e-05,-5.1126e-05,-6.76015e-05,-8.65114e-05,-0.000107807,-0.000131417,-0.000157253,-0.000185211,-0.000215179,-0.000247036,-0.000280656,-0.000315911,-0.00035267,-0.000390801,-0.000430174,-0.000470661,-0.000512133,-0.000554467,-0.00059754,-0.000641234,-0.000685433,-0.000730025,-0.0007749,-0.000819952,-0.000865078,-0.000910178,-0.000955153,-0.000999909,-0.00104435,-0.00108839,-0.00113194,-0.00117491,-0.00121722,-0.00125878,-0.00129951,-0.00133933,-0.00137815,-0.0014159,-0.00145251,-0.00148788,-0.00152196,-0.00155465,-0.00158589,-0.0016156,-0.00164372,-0.00167016,-0.00169487,-0.00171777,-0.00173879,-0.00175788,-0.00177498,-0.00179002,-0.00180294,-0.00181371,-0.00182226,-0.00182856,-0.00183256,-0.00183423,-0.00183353,-0.00183045,-0.00182495,-0.00181704,-0.00180669,-0.00179392,-0.00177872,-0.00176112,-0.00174112,-0.00171876,-0.00169409,-0.00166713,-0.00163795,-0.0016066,-0.00157317,-0.00153771,-0.00150033,-0.00146112,-0.00142018,-0.00137761,-0.00133355,-0.00128811,-0.00124143,-0.00119365,-0.00114492,-0.00109537,-0.00104519,-0.00099451,-0.000943513,-0.000892362,-0.000841228,-0.000790284,-0.000739702,-0.000689655,-0.000640316,-0.000591856,-0.000544441,-0.000498237,-0.000453403,-0.000410093,-0.000368454,-0.000328626,-0.000290741,-0.000254918,-0.000221268,-0.000189888,-0.000160862,-0.000134257,-0.000110124,-8.84964e-05,-6.93854e-05,-5.27799e-05,-3.86433e-05,-2.69111e-05,-1.74873e-05,-1.02411e-05,-5.00291e-06,-1.5593e-06,3.51895e-07,1.04792e-06,9.08116e-07,3.82218e-07,-0
-0,-4.88134e-07,-2.49687e-06,-6.45461e-06,-1.26889e-05,-2.14403e-05,-3.28752e-05,-4.7097e-05,-6.41559e-05,-8.4058e-05,-0.000106773,-0.00013224,-0.000160375,-0.000191074,-0.000224219,-0.000259679,-0.000297317,-0.000336987,-0.000378541,-0.000421831,-0.000466704,-0.000513011,-0.000560603,-0.000609334,-0.000659059,-0.000709638,-0.000760933,-0.00081281,-0.000865138,-0.000917791,-0.000970645,-0.00102358,-0.00107648,-0.00112923,-0.00118171,-0.00123383,-0.00128547,-0.00133653,-0.00138691,-0.0014365,-0.00148522,-0.00153296,-0.00157963,-0.00162513,-0.00166938,-0.00171227,-0.00175372,-0.00179364,-0.00183194,-0.00186854,-0.00190334,-0.00193627,-0.00196724,-0.00199617,-0.00202299,-0.0020476,-0.00206995,-0.00208996,-0.00210757,-0.0021227,-0.00213529,-0.0021453,-0.00215267,-0.00215735,-0.0021593,-0.00215848,-0.00215487,-0.00214845,-0.00213919,-0.00212709,-0.00211215,-0.00209438,-0.00207379,-0.00205041,-0.00202427,-0.00199541,-0.00196389,-0.00192977,-0.00189313,-0.00185403,-0.00181258,-0.00176887,-0.00172302,-0.00167515,-0.00162537,-0.00157384,-0.0015207,-0.00146611,-0.00141022,-0.0013532,-0.00129524,-0.00123651,-0.0011772,-0.0011175,-0.00105761,-0.000997728,-0.00093805,-0.000878779,-0.000820116,-0.000762261,-0.000705412,-0.000649763,-0.000595506,-0.000542826,-0.000491902,-0.000442904,-0.000395995,-0.000351326,-0.000309039,-0.000269259,-0.0002321,-0.000197658,-0.000166014,-0.000137226,-0.000111333,-8.83508e-05,-6.82672e-05,-5.10434e-05,-3.66086e-05,-2.48574e-05,-1.56462e-05,-8.7891e-06,-4.05287e-06,-1.15208e-06,2.57101e-07,5.83727e-07,3.09952e-07,-0
-0,-7.26258e-07,-3.43961e-06,-8.56099e-06,-1.64115e-05,-2.72256e-05,-4.11626e-05,-5.8318e-05,-7.87328e-05,-0.000102402,-0.000129284,-0.000159304,-0.000192362,-0.000228338,-0.000267097,-0.000308491,-0.000352361,-0.000398544,-0.000446871,-0.000497173,-0.000549279,-0.000603016,-0.000658217,-0.000714715,-0.000772345,-0.000830947,-0.000890362,-0.00095044,-0.00101103,-0.00107198,-0.00113316,-0.00119443,-0.00125564,-0.00131668,-0.00137741,-0.0014377,-0.00149744,-0.00155651,-0.00161478,-0.00167215,-0.00172849,-0.0017837,-0.00183767,-0.00189029,-0.00194145,-0.00199104,-0.00203896,-0.00208512,-0.00212939,-0.0021717,-0.00221193,-0.00224999,-0.00228578,-0.00231921,-0.0023502,-0.00237865,-0.00240448,-0.0024276,-0.00244794,-0.00246542,-0.00247998,-0.00249155,-0.00250006,-0.00250548,-0.00250774,-0.00250681,-0.00250266,-0.00249526,-0.00248459,-0.00247064,-0.00245341,-0.00243292,-0.00240917,-0.00238221,-0.00235206,-0.00231878,-0.00228242,-0.00224307,-0.0022008,-0.0021557,-0.00210789,-0.00205747,-0.00200457,-0.00194933,-0.00189191,-0.00183245,-0.00177112,-0.00170811,-0.0016436,-0.00157777,-0.00151085,-0.00144303,-0.00137453,-0.00130556,-0.00123636,-0.00116715,-0.00109815,-0.00102961,-0.000961742,-0.000894787,-0.000828968,-0.000764509,-0.000701628,-0.000640538,-0.000581444,-0.000524542,-0.000470017,-0.000418043,-0.000368782,-0.000322379,-0.000278964,-0.000238648,-0.000201522,-0.000167656,-0.000137095,-0.000109859,-8.59361e-05,-6.52865e-05,-4.78341e-05,-3.34651e-05,-2.20242e-05,-1.33104e-05,-7.07263e-06,-3.004e-06,-7.36574e-07,1.65427e-07,2.12885e-07,-0
-0,-9.96386e-07,-4.50349e-06,-1.09283e-05,-2.05795e-05,-3.36799e-05,-5.03773e-05,-7.07549e-05,-9.48411e-05,-0.000122617,-0.000154026,-0.000188977,-0.000227354,-0.000269019,-0.000313817,-0.00036158,-0.00041213,-0.000465284,-0.000520851,-0.000578641,-0.00063846,-0.000700117,-0.00076342,-0.000828183,-0.00089422,-0.00096135,-0.00102939,-0.00109818,-0.00116754,-0.0012373,-0.00130732,-0.00137742,-0.00144746,-0.00151728,-0.00158675,-0.00165572,-0.00172404,-0.00179159,-0.00185823,-0.00192383,-0.00198826,-0.00205139,-0.0021131,-0.00217325,-0.00223174,-0.00228843,-0.00234322,-0.00239597,-0.00244659,-0.00249494,-0.00254092,-0.00258442,-0.00262533,-0.00266354,-0.00269896,-0.00273147,-0.00276099,-0.00278742,-0.00281067,-0.00283066,-0.00284731,-0.00286055,-0.0028703,-0.00287651,-0.00287912,-0.0028781,-0.00287339,-0.00286497,-0.00285283,-0.00283694,-0.00281732,-0.00279397,-0.00276691,-0.00273617,-0.00270181,-0.00266387,-0.00262242,-0.00257755,-0.00252935,-0.00247793,-0.0024234,-0.00236589,-0.00230556,-0.00224255,-0.00217704,-0.0021092,-0.00203922,-0.00196731,-0.00189367,-0.00181853,-0.00174212,-0.00166467,-0.00158643,-0.00150764,-0.00142857,-0.00134946,-0.00127058,-0.00119218,-0.00111454,-0.00103791,-0.000962546,-0.000888705,-0.000816634,-0.000746575,-0.000678758,-0.000613408,-0.000550734,-0.000490934,-0.000434191,-0.000380671,-0.000330521,-0.000283867,-0.000240815,-0.000201444,-0.000165808,-0.000133931,-0.000105804,-8.13866e-05,-6.05978e-05,-4.3317e-05,-2.93786e-05,-1.85682e-05,-1.06182e-05,-5.20253e-06,-1.93153e-06,-3.45593e-07,9.15137e-08,-0
-0,-1.29759e-06,-5.68544e-06,-1.35506e-05,-2.51839e-05,-4.07913e-05,-6.05043e-05,-8.43901e-05,-0.000112461,-0.00014468,-0.000180974,-0.000221232,-0.000265321,-0.000313082,-0.000364339,-0.000418905,-0.000476579,-0.000537155,-0.000600423,-0.000666168,-0.000734175,-0.000804231,-0.000876123,-0.00094964,-0.00102458,-0.00110073,-0.0011779,-0.00125589,-0.00133452,-0.00141359,-0.00149293,-0.00157236,-0.00165172,-0.00173082,-0.00180951,-0.00188763,-0.00196502,-0.00204152,-0.00211699,-0.00219128,-0.00226423,-0.00233572,-0.00240558,-0.0024737,-0.00253991,-0.0026041,-0.00266612,-0.00272585,-0.00278315,-0.00283789,-0.00288994,-0.00293919,-0.0029855,-0.00302877,-0.00306886,-0.00310568,-0.0031391,-0.00316904,-0.00319537,-0.00321802,-0.0032369,-0.00325191,-0.00326299,-0.00327006,-0.00327307,-0.00327197,-0.0032667,-0.00325725,-0.00324358,-0.00322568,-0.00320357,-0.00317723,-0.00314671,-0.00311203,-0.00307326,-0.00303044,-0.00298366,-0.002933,-0.00287858,-0.00282052,-0.00275894,-0.00269399,-0.00262584,-0.00255467,-0.00248065,-0.00240399,-0.00232491,-0.00224363,-0.00216038,-0.00207543,-0.00198902,-0.00190142,-0.0018129,-0.00172374,-0.00163424,-0.00154467,-0.00145534,-0.00136653,-0.00127854,-0.00119166,-0.00110618,-0.00102239,-0.000940566,-0.000860978,-0.000783887,-0.000709545,-0.000638188,-0.00057004,-0.000505305,-0.00044417,-0.000386803,-0.000333346,-0.000283919,-0.000238613,-0.00019749,-0.000160582,-0.000127883,-9.93507e-05,-7.49036e-05,-5.44144e-05,-3.77087e-05,-2.45601e-05,-1.46864e-05,-7.74448e-06,-3.32516e-06,-9.47688e-07,-5.35661e-08,-0
-0,-1.62893e-06,-6.98235e-06,-1.64219e-05,-3.02152e-05,-4.85466e-05,-7.1527e-05,-9.92034e-05,-0.000131568,-0.000168564,-0.000210096,-0.000256036,-0.000306226,-0.000360487,-0.000418621,-0.000480416,-0.000545652,-0.000614099,-0.000685522,-0.000759684,-0.000836348,-0.000915276,-0.000996232,-0.00107898,-0.0011633,-0.00124896,-0.00133575,-0.00142343,-0.00151181,-0.00160068,-0.00168984,-0.00177909,-0.00186823,-0.00195709,-0.00204548,-0.00213322,-0.00222013,-0.00230605,-0.00239079,-0.00247421,-0.00255613,-0.00263639,-0.00271484,-0.00279131,-0.00286565,-0.00293772,-0.00300736,-0.00307441,-0.00313874,-0.0032002,-0.00325864,-0.00331394,-0.00336594,-0.00341453,-0.00345955,-0.00350091,-0.00353846,-0.00357209,-0.0036017,-0.00362716,-0.0036484,-0.00366531,-0.00367781,-0.00368582,-0.00368928,-0.00368812,-0.00368231,-0.0036718,-0.00365657,-0.0036366,-0.0036119,-0.00358247,-0.00354835,-0.00350958,-0.0034662,-0.0034183,-0.00336595,-0.00330926,-0.00324835,-0.00318334,-0.00311439,-0.00304166,-0.00296533,-0.0028856,-0.00280267,-0.00271678,-0.00262815,-0.00253704,-0.00244372,-0.00234845,-0.00225154,-0.00215327,-0.00205395,-0.00195389,-0.00185341,-0.00175283,-0.00165248,-0.00155269,-0.00145378,-0.00135609,-0.00125993,-0.00116562,-0.00107348,-0.000983802,-0.000896884,-0.000813005,-0.000732429,-0.000655405,-0.000582164,-0.000512914,-0.000447843,-0.000387113,-0.000330857,-0.000279181,-0.000232156,-0.000189822,-0.000152177,-0.000119182,-9.07516e-05,-6.67551e-05,-4.70106e-05,-3.12814e-05,-1.92726e-05,-1.06256e-05,-4.91427e-06,-1.63899e-06,-2.21715e-07,-0
-0,-1.98952e-06,-8.39112e-06,-1.95359e-05,-3.56636e-05,-5.69322e-05,-8.34277e-05,-0.000115173,-0.000152136,-0.000194239,-0.000241361,-0.000293351,-0.000350028,-0.000411188,-0.000476611,-0.000546061,-0.000619293,-0.000696051,-0.000776079,-0.000859115,-0.000944897,-0.00103316,-0.00112365,-0.00121611,-0.00131029,-0.00140594,-0.00150281,-0.00160067,-0.00169928,-0.00179843,-0.00189787,-0.00199741,-0.00209682,-0.0021959,-0.00229445,-0.00239227,-0.00248916,-0.00258493,-0.0026794,-0.00277238,-0.00286369,-0.00295315,-0.00304058,-0.00312582,-0.00320868,-0.003289,-0.00336662,-0.00344136,-0.00351306,-0.00358157,-0.00364672,-0.00370836,-0.00376634,-0.00382052,-0.00387073,-0.00391686,-0.00395875,-0.00399629,-0.00402934,-0.0040578,-0.00408154,-0.00410047,-0.00411449,-0.00412353,-0.00412749,-0.00412633,-0.00411998,-0.00410841,-0.00409158,-0.00406949,-0.00404213,-0.00400952,-0.00397168,-0.00392866,-0.00388052,-0.00382734,-0.00376921,-0.00370624,-0.00363857,-0.00356634,-0.00348971,-0.00340886,-0.003324,-0.00323534,-0.00314311,-0.00304756,-0.00294895,-0.00284757,-0.0027437,-0.00263765,-0.00252973,-0.00242028,-0.00230964,-0.00219814,-0.00208614,-0.001974,-0.00186208,-0.00175075,-0.00164036,-0.00153128,-0.00142386,-0.00131847,-0.00121544,-0.00111511,-0.00101781,-0.000923847,-0.00083351,-0.000747081,-0.000664814,-0.000586943,-0.000513676,-0.000445196,-0.000381653,-0.000323166,-0.00026982,-0.00022166,-0.000178693,-0.000140881,-0.00010814,-8.03355e-05,-5.72794e-05,-3.87267e-05,-2.43713e-05,-1.38414e-05,-6.69548e-06,-2.41756e-06,-4.12295e-07,-0
-0,-2.3785e-06,-9.90874e-06,-2.28867e-05,-4.15193e-05,-6.59341e-05,-9.61882e-05,-0.000132277,-0.00017414,-0.000221674,-0.000274732,-0.000333137,-0.000396682,-0.000465138,-0.000538259,-0.000615783,-0.000697438,-0.000782947,-0.000872024,-0.000964383,-0.00105974,-0.0011578,-0.00125829,-0.00136093,-0.00146543,-0.00157153,-0.00167897,-0.00178747,-0.00189679,-0.00200667,-0.00211688,-0.00222717,-0.00233731,-0.00244707,-0.00255624,-0.00266458,-0.0027719,-0.00287797,-0.00298259,-0.00308556,-0.00318668,-0.00328575,-0.00338258,-0.00347697,-0.00356874,-0.00365769,-0.00374365,-0.00382643,-0.00390584,-0.00398173,-0.0040539,-0.0041222,-0.00418644,-0.00424648,-0.00430214,-0.00435328,-0.00439974,-0.00444138,-0.00447808,-0.00450968,-0.00453608,-0.00455717,-0.00457283,-0.00458297,-0.00458752,-0.00458639,-0.00457954,-0.00456691,-0.00454848,-0.00452423,-0.00449415,-0.00445826,-0.00441659,-0.00436919,-0.00431613,-0.00425749,-0.00419338,-0.00412391,-0.00404923,-0.00396949,-0.00388489,-0.00379561,-0.00370188,-0.00360393,-0.00350201,-0.0033964,-0.0032874,-0.00317529,-0.00306042,-0.0029431,-0.00282369,-0.00270256,-0.00258007,-0.0024566,-0.00233254,-0.00220829,-0.00208424,-0.0019608,-0.00183836,-0.00171732,-0.00159808,-0.00148103,-0.00136655,-0.001255,-0.00114675,-0.00104214,-0.000941501,-0.000845127,-0.000753308,-0.000666303,-0.000584343,-0.00050763,-0.000436334,-0.00037059,-0.000310495,-0.000256106,-0.000207436,-0.000164451,-0.000127068,-9.5152e-05,-6.85101e-05,-4.68904e-05,-2.99772e-05,-1.73872e-05,-8.66551e-06,-3.28156e-06,-6.24701e-07,-0