0,0,0,0,0,0,0,0,0,0,0,0,0,0,0,0,0,0,0,0,0,0,0,0,0,0,0,0,0,0,0,0,0,0,0,0,0,0,0,0,0,0,0,0,0,0,0,0,0,0,0,0,0,0,0,0,0,0,0,0,0,0,0,0,0,0,0,0,0,0,0,0,0,0,0,0,0,0,0,0,0,0,0,0,0,0,0,0,0,0,0,0,0,0,0,0,0,0,0,0,0,0,0,0,0,0,0,0,0,0,0,0,0,0,0,0,0,0,0,0,0,0,0,0,0,0,0,0
0,5.07785e-06,1.51979e-05,2.57438e-05,3.33259e-05,3.56965e-05,3.14705e-05,1.9868e-05,5.22021e-07,-2.66537e-05,-6.15558e-05,-0.000103952,-0.000153527,-0.000209905,-0.000272679,-0.000341421,-0.000415694,-0.000495061,-0.000579087,-0.000667348,-0.00075943,-0.000854934,-0.000953473,-0.00105468,-0.00115819,-0.00126368,-0.00137081,-0.00147928,-0.00158878,-0.00169905,-0.00180979,-0.00192077,-0.00203171,-0.00214239,-0.00225257,-0.00236203,-0.00247055,-0.00257791,-0.00268391,-0.00278834,-0.00289101,-0.00299171,-0.00309025,-0.00318645,-0.00328009,-0.00337101,-0.00345899,-0.00354387,-0.00362544,-0.00370353,-0.00377795,-0.00384851,-0.00391503,-0.00397734,-0.00403524,-0.00408858,-0.00413718,-0.00418087,-0.0042195,-0.00425291,-0.00428095,-0.00430349,-0.0043204,-0.00433156,-0.00433686,-0.00433621,-0.00432952,-0.00431674,-0.0042978,-0.00427267,-0.00424134,-0.00420381,-0.0041601,-0.00411025,-0.00405432,-0.00399241,-0.0039246,-0.00385105,-0.00377189,-0.00368731,-0.00359751,-0.0035027,-0.00340315,-0.00329912,-0.00319089,-0.0030788,-0.00296317,-0.00284437,-0.00272276,-0.00259874,-0.00247273,-0.00234514,-0.00221642,-0.00208702,-0.0019574,-0.00182803,-0.00169938,-0.00157192,-0.00144615,-0.00132252,-0.00120153,-0.00108364,-0.0009693,-0.000858972,-0.00075309,-0.000652075,-0.00055633,-0.000466237,-0.000382154,-0.000304412,-0.000233312,-0.000169121,-0.000112065,-6.23265e-05,-2.00378e-05,1.47299e-05,4.19758e-05,6.17847e-05,7.43461e-05,7.99811e-05,7.91782e-05,7.26443e-05,6.13728e-05,4.67358e-05,3.05958e-05,1.54058e-05,4.18202e-06,0
0,7.66135e-06,2.07032e-05,3.2471e-05,3.81152e-05,3.4205e-05,1.84533e-05,-1.05433e-05,-5.35293e-05,-0.000110768,-0.000182175,-0.000267421,-0.000366003,-0.000477298,-0.000600602,-0.000735163,-0.0008802,-0.00103492,-0.00119853,-0.00137024,-0.00154929,-0.00173492,-0.00192642,-0.00212307,-0.0023242,-0.00252916,-0.00273733,-0.00294811,-0.00316092,-0.00337522,-0.00359048,-0.00380619,-0.00402186,-0.00423703,-0.00445122,-0.00466401,-0.00487496,-0.00508366,-0.00528969,-0.00549265,-0.00569216,-0.00588782,-0.00607924,-0.00626606,-0.00644789,-0.00662436,-0.0067951,-0.00695975,-0.00711794,-0.0072693,-0.00741348,-0.00755012,-0.00767887,-0.00779939,-0.00791132,-0.00801435,-0.00810814,-0.00819237,-0.00826675,-0.00833098,-0.00838478,-0.0084279,-0.00846009,-0.00848113,-0.00849081,-0.00848897,-0.00847544,-0.00845012,-0.00841291,-0.00836374,-0.0083026,-0.00822949,-0.00814447,-0.00804761,-0.00793904,-0.00781894,-0.00768752,-0.00754502,-0.00739175,-0.00722806,-0.00705432,-0.00687099,-0.00667852,-0.00647745,-0.00626834,-0.00605179,-0.00582846,-0.00559901,-0.00536419,-0.00512473,-0.00488142,-0.00463508,-0.00438655,-0.00413668,-0.00388635,-0.00363646,-0.00338791,-0.00314161,-0.00289847,-0.00265939,-0.00242528,-0.00219704,-0.00197552,-0.00176159,-0.00155608,-0.00135977,-0.00117343,-0.000997779,-0.000833483,-0.000681158,-0.000541362,-0.00041458,-0.000301221,-0.000201604,-0.000115947,-4.43494e-05,1.32281e-05,5.69898e-05,8.73389e-05,0.00010492,0.000110679,0.00010593,9.24483e-05,7.25747e-05,4.93133e-05,2.63967e-05,8.25988e-06,0
0,7.40252e-06,1.82452e-05,2.4908e-05,2.18972e-05,5.24155e-06,-2.78183e-05,-7.90668e-05,-0.000149519,-0.000239595,-0.000349265,-0.000478165,-0.000625681,-0.000791022,-0.000973276,-0.00117144,-0.00138447,-0.00161128,-0.00185079,-0.0021019,-0.00236354,-0.00263466,-0.00291423,-0.00320126,-0.00349478,-0.00379387,-0.00409762,-0.00440517,-0.00471569,-0.00502839,-0.00534248,-0.00565725,-0.00597196,-0.00628592,-0.00659847,-0.00690896,-0.00721675,-0.00752123,-0.0078218,-0.00811786,-0.00840884,-0.00869415,-0.00897325,-0.00924557,-0.00951056,-0.00976767,-0.0100164,-0.0102561,-0.0104864,-0.0107066,-0.0109163,-0.011115,-0.011302,-0.0114771,-0.0116395,-0.011789,-0.0119249,-0.0120468,-0.0121544,-0.0122472,-0.0123247,-0.0123867,-0.0124328,-0.0124626,-0.012476,-0.0124725,-0.0124521,-0.0124146,-0.0123598,-0.0122877,-0.0121982,-0.0120914,-0.0119673,-0.0118261,-0.011668,-0.0114931,-0.0113019,-0.0110947,-0.010872,-0.0106342,-0.0103819,-0.0101157,-0.00983638,-0.00954462,-0.00924125,-0.00892715,-0.00860325,-0.00827053,-0.00793002,-0.00758282,-0.00723004,-0.00687285,-0.00651246,-0.00615009,-0.00578701,-0.00542449,-0.00506382,-0.0047063,-0.00435324,-0.00400593,-0.00366566,-0.00333369,-0.00301128,-0.00269964,-0.00239993,-0.0021133,-0.00184082,-0.00158349,-0.00134226,-0.001118,-0.000911478,-0.000723359,-0.0005542,-0.000404424,-0.000274307,-0.000163951,-7.326e-05,-1.90434e-06,5.07183e-05,8.55364e-05,0.000103866,0.000107486,9.87197e-05,8.05283e-05,5.6589e-05,3.13727e-05,1.02643e-05,0
0,5.22744e-06,1.01583e-05,7.13183e-06,-9.46656e-06,-4.3754e-05,-9.86567e-05,-0.000176125,-0.00027731,-0.000402726,-0.000552378,-0.00072588,-0.000922546,-0.00114147,-0.00138157,-0.00164167,-0.00192051,-0.00221676,-0.00252911,-0.0028562,-0.0031967,-0.0035493,-0.00391271,-0.00428568,-0.00466698,-0.00505543,-0.00544989,-0.00584924,-0.00625243,-0.00665841,-0.00706621,-0.00747486,-0.00788342,-0.008291,-0.00869673,-0.00909977,-0.00949927,-0.00989445,-0.0102845,-0.0106687,-0.0110462,-0.0114163,-0.0117783,-0.0121314,-0.012475,-0.0128082,-0.0131305,-0.0134411,-0.0137393,-0.0140244,-0.0142958,-0.0145527,-0.0147947,-0.0150208,-0.0152307,-0.0154236,-0.0155989,-0.0157561,-0.0158946,-0.0160139,-0.0161135,-0.0161929,-0.0162517,-0.0162894,-0.0163058,-0.0163005,-0.0162733,-0.016224,-0.0161523,-0.0160583,-0.0159419,-0.0158032,-0.0156422,-0.0154592,-0.0152543,-0.015028,-0.0147806,-0.0145126,-0.0142246,-0.0139172,-0.0135912,-0.0132474,-0.0128867,-0.01251,-0.0121183,-0.0117129,-0.0112948,-0.0108654,-0.010426,-0.00997796,-0.00952269,-0.0090617,-0.00859653,-0.00812875,-0.00765996,-0.00719179,-0.00672588,-0.00626389,-0.00580747,-0.00535827,-0.00491793,-0.00448806,-0.00407023,-0.00366599,-0.00327682,-0.00290415,-0.00254933,-0.00221364,-0.00189826,-0.00160427,-0.00133261,-0.00108413,-0.000859494,-0.000659206,-0.000483583,-0.000332722,-0.000206469,-0.000104388,-2.57081e-05,3.07198e-05,6.64887e-05,8.37007e-05,8.50402e-05,7.38497e-05,5.42125e-05,3.10654e-05,1.04321e-05,0
0,1.91497e-06,-1.60827e-06,-1.7618e-05,-5.14409e-05,-0.000107051,-0.000187317,-0.000294179,-0.000428803,-0.000591714,-0.00078291,-0.00100197,-0.00124815,-0.00152043,-0.00181762,-0.00213839,-0.0024813,-0.00284485,-0.00322749,-0.00362768,-0.00404386,-0.00447449,-0.00491806,-0.00537307,-0.00583808,-0.00631168,-0.0067925,-0.00727921,-0.00777052,-0.00826521,-0.00876205,-0.00925989,-0.0097576,-0.0102541,-0.0107483,-0.0112392,-0.0117257,-0.0122069,-0.0126819,-0.0131496,-0.0136091,-0.0140596,-0.0145001,-0.0149298,-0.0153477,-0.015753,-0.0161449,-0.0165224,-0.0168848,-0.0172312,-0.0175607,-0.0178727,-0.0181663,-0.0184407,-0.0186951,-0.0189289,-0.0191412,-0.0193315,-0.0194989,-0.019643,-0.0197631,-0.0198587,-0.0199292,-0.0199742,-0.0199932,-0.0199859,-0.0199521,-0.0198914,-0.0198037,-0.0196889,-0.019547,-0.019378,-0.0191821,-0.0189596,-0.0187107,-0.0184358,-0.0181355,-0.0178103,-0.0174609,-0.0170882,-0.0166929,-0.0162762,-0.015839,-0.0153825,-0.014908,-0.0144168,-0.0139104,-0.0133902,-0.0128579,-0.0123151,-0.0117636,-0.0112051,-0.0106414,-0.0100745,-0.00950621,-0.00893854,-0.00837345,-0.0078129,-0.00725887,-0.00671334,-0.00617824,-0.00565551,-0.00514702,-0.00465461,-0.00418003,-0.00372499,-0.0032911,-0.00287984,-0.00249263,-0.00213072,-0.00179524,-0.00148715,-0.00120722,-0.000956036,-0.000733939,-0.000541025,-0.000377098,-0.000241635,-0.000133746,-5.21214e-05,5.02027e-06,3.99897e-05,5.56909e-05,5.56897e-05,4.43007e-05,2.67227e-05,9.2958e-06,0
0,-2.03138e-06,-1.56518e-05,-4.69253e-05,-0.000100595,-0.000180267,-0.000288577,-0.000427316,-0.000597553,-0.000799744,-0.00103383,-0.00129933,-0.00159541,-0.00192097,-0.00227472,-0.00265518,-0.00306078,-0.00348984,-0.00394067,-0.00441152,-0.00490066,-0.00540634,-0.00592685,-0.00646051,-0.00700565,-0.00756066,-0.00812398,-0.00869407,-0.00926945,-0.00984869,-0.0104304,-0.0110132,-0.0115958,-0.0121769,-0.0127553,-0.0133297,-0.013899,-0.014462,-0.0150176,-0.0155647,-0.0161022,-0.016629,-0.0171441,-0.0176464,-0.0181349,-0.0186085,-0.0190664,-0.0195073,-0.0199305,-0.0203349,-0.0207196,-0.0210836,-0.0214261,-0.021746,-0.0220425,-0.0223148,-0.0225621,-0.0227835,-0.0229783,-0.0231457,-0.0232851,-0.0233958,-0.0234772,-0.0235289,-0.0235503,-0.023541,-0.0235007,-0.0234292,-0.0233263,-0.0231918,-0.0230257,-0.0228282,-0.0225994,-0.0223396,-0.0220491,-0.0217284,-0.0213782,-0.0209992,-0.020592,-0.0201577,-0.0196972,-0.0192118,-0.0187026,-0.018171,-0.0176185,-0.0170466,-0.0164569,-0.0158513,-0.0152315,-0.0145994,-0.0139571,-0.0133066,-0.01265,-0.0119894,-0.0113271,-0.0106654,-0.0100064,-0.00935245,-0.00870583,-0.00806877,-0.00744353,-0.0068323,-0.00623724,-0.00566045,-0.00510394,-0.00456965,-0.00405941,-0.00357495,-0.00311783,-0.00268951,-0.00229123,-0.0019241,-0.00158897,-0.00128649,-0.00101704,-0.000780729,-0.000577327,-0.00040626,-0.000266559,-0.000156814,-7.51319e-05,-1.90829e-05,1.43511e-05,2.88416e-05,2.8797e-05,1.9494e-05,7.29556e-06,0
0,-6.30528e-06,-3.10198e-05,-7.90569e-05,-0.000154388,-0.000260091,-0.000398427,-0.000570924,-0.000778462,-0.00102136,-0.00129943,-0.0016121,-0.00195846,-0.00233729,-0.00274719,-0.00318656,-0.00365371,-0.00414684,-0.00466407,-0.00520352,-0.00576328,-0.00634143,-0.0069361,-0.00754541,-0.00816752,-0.00880065,-0.00944303,-0.010093,-0.0107488,-0.0114089,-0.0120716,-0.0127356,-0.0133992,-0.0140611,-0.0147197,-0.0153738,-0.016022,-0.016663,-0.0172955,-0.0179182,-0.0185299,-0.0191294,-0.0197154,-0.0202868,-0.0208424,-0.0213811,-0.0219016,-0.0224029,-0.0228839,-0.0233434,-0.0237804,-0.0241938,-0.0245826,-0.0249457,-0.0252822,-0.0255911,-0.0258715,-0.0261224,-0.026343,-0.0265325,-0.0266901,-0.0268152,-0.026907,-0.026965,-0.0269886,-0.0269775,-0.0269312,-0.0268495,-0.0267321,-0.026579,-0.0263901,-0.0261657,-0.0259057,-0.0256107,-0.025281,-0.0249172,-0.0245199,-0.02409,-0.0236283,-0.0231359,-0.0226139,-0.0220637,-0.0214865,-0.0208841,-0.0202579,-0.0196097,-0.0189414,-0.0182549,-0.0175524,-0.0168359,-0.0161077,-0.01537,-0.0146253,-0.013876,-0.0131245,-0.0123734,-0.0116251,-0.0108822,-0.0101473,-0.00942292,-0.00871148,-0.00801549,-0.00733734,-0.00667939,-0.00604387,-0.00543296,-0.00484868,-0.00429294,-0.0037675,-0.00327396,-0.0028137,-0.00238794,-0.00199762,-0.00164346,-0.00132589,-0.00104502,-0.000800625,-0.000592111,-0.000418468,-0.00027824,-0.000169483,-8.9723e-05,-3.59096e-05,-4.3616e-06,9.30622e-06,1.02886e-05,4.74435e-06,0
0,-1.07221e-05,-4.70805e-05,-0.000112798,-0.000210976,-0.000344052,-0.000513815,-0.000721437,-0.00096753,-0.0012522,-0.00157512,-0.00193555,-0.00233246,-0.00276454,-0.00323026,-0.00372792,-0.00425568,-0.00481162,-0.00539375,-0.00600002,-0.00662839,-0.00727679,-0.00794318,-0.00862552,-0.00932183,-0.0100302,-0.0107486,-0.0114752,-0.0122082,-0.0129458,-0.0136862,-0.0144279,-0.0151691,-0.0159082,-0.0166436,-0.0173739,-0.0180975,-0.018813,-0.0195189,-0.0202138,-0.0208964,-0.0215652,-0.0222189,-0.0228563,-0.0234759,-0.0240765,-0.0246569,-0.0252157,-0.0257517,-0.0262638,-0.0267507,-0.0272112,-0.0276442,-0.0280485,-0.028423,-0.0287668,-0.0290787,-0.0293577,-0.029603,-0.0298136,-0.0299887,-0.0301275,-0.0302293,-0.0302934,-0.0303193,-0.0303065,-0.0302546,-0.0301634,-0.0300325,-0.0298619,-0.0296516,-0.0294017,-0.0291124,-0.0287842,-0.0284175,-0.0280129,-0.0275712,-0.0270932,-0.02658,-0.0260327,-0.0254525,-0.0248409,-0.0241995,-0.0235299,-0.0228339,-0.0221135,-0.0213707,-0.0206076,-0.0198265,-0.0190298,-0.01822,-0.0173995,-0.0165709,-0.015737,-0.0149005,-0.014064,-0.0132304,-0.0124025,-0.011583,-0.0107748,-0.00998048,-0.00920288,-0.00844459,-0.00770817,-0.00699609,-0.00631072,-0.00565427,-0.00502884,-0.00443635,-0.00387853,-0.00335691,-0.0028728,-0.00242726,-0.00202105,-0.00165466,-0.00132824,-0.00104158,-0.000794105,-0.000584794,-0.000412192,-0.000274357,-0.000168829,-9.25964e-05,-4.20461e-05,-1.29144e-05,-2.1372e-07,1.85655e-06,0
0,-1.517e-05,-6.34192e-05,-0.000147309,-0.000269035,-0.000430332,-0.000632444,-0.000876121,-0.00116164,-0.00148886,-0.00185722,-0.00226582,-0.00271349,-0.00319877,-0.00372001,-0.00427538,-0.00486294,-0.00548064,-0.00612636,-0.00679793,-0.00749316,-0.00820985,-0.00894583,-0.00969892,-0.010467,-0.0112479,-0.0120396,-0.0128401,-0.0136474,-0.0144596,-0.0152747,-0.016091,-0.0169066,-0.0177198,-0.0185289,-0.0193322,-0.0201281,-0.0209149,-0.0216911,-0.0224552,-0.0232055,-0.0239407,-0.0246593,-0.0253597,-0.0260406,-0.0267006,-0.0273381,-0.027952,-0.0285408,-0.0291031,-0.0296377,-0.0301433,-0.0306186,-0.0310623,-0.0314734,-0.0318505,-0.0321927,-0.0324988,-0.0327678,-0.0329987,-0.0331906,-0.0333427,-0.0334542,-0.0335245,-0.0335528,-0.0335387,-0.0334818,-0.0333817,-0.0332382,-0.0330513,-0.0328208,-0.0325471,-0.0322303,-0.0318708,-0.0314691,-0.031026,-0.0305423,-0.0300189,-0.0294568,-0.0288575,-0.0282222,-0.0275525,-0.02685,-0.0261167,-0.0253544,-0.0245653,-0.0237515,-0.0229155,-0.0220596,-0.0211864,-0.0202987,-0.019399,-0.0184903,-0.0175755,-0.0166574,-0.0157391,-0.0148236,-0.0139139,-0.0130129,-0.0121239,-0.0112496,-0.010393,-0.00955699,-0.00874433,-0.00795769,-0.00719961,-0.00647251,-0.00577864,-0.00512008,-0.0044987,-0.00391616,-0.00337387,-0.00287299,-0.00241436,-0.00199854,-0.00162573,-0.00129576,-0.00100808,-0.000761722,-0.000555252,-0.00038678,-0.000253911,-0.000153726,-8.27475e-05,-3.69087e-05,-1.15174e-05,-1.2217e-06,0
0,-1.95816e-05,-7.9766e-05,-0.000182017,-0.000327628,-0.000517605,-0.000752605,-0.0010329,-0.00135841,-0.00172865,-0.00214283,-0.00259986,-0.00309835,-0.00363672,-0.00421318,-0.00482576,-0.0054724,-0.00615092,-0.00685908,-0.00759461,-0.00835517,-0.00913847,-0.00994217,-0.010764,-0.0116016,-0.0124529,-0.0133155,-0.0141874,-0.0150664,-0.0159504,-0.0168375,-0.0177257,-0.0186129,-0.0194974,-0.0203773,-0.0212508,-0.0221161,-0.0229715,-0.0238153,-0.0246457,-0.0254612,-0.0262602,-0.027041,-0.027802,-0.0285417,-0.0292586,-0.0299511,-0.0306178,-0.0312572,-0.0318679,-0.0324484,-0.0329973,-0.0335133,-0.033995,-0.0344412,-0.0348506,-0.035222,-0.0355542,-0.0358462,-0.0360969,-0.0363053,-0.0364705,-0.0365917,-0.0366681,-0.0366991,-0.0366842,-0.0366229,-0.0365148,-0.0363598,-0.0361576,-0.0359084,-0.0356123,-0.0352695,-0.0348805,-0.034446,-0.0339665,-0.033443,-0.0328766,-0.0322683,-0.0316196,-0.0309319,-0.0302069,-0.0294464,-0.0286524,-0.0278269,-0.0269722,-0.0260907,-0.025185,-0.0242575,-0.0233111,-0.0223487,-0.0213731,-0.0203874,-0.0193947,-0.0183982,-0.017401,-0.0164064,-0.0154176,-0.0144378,-0.0134704,-0.0125184,-0.011585,-0.0106733,-0.00978614,-0.00892652,-0.00809712,-0.00730053,-0.00653917,-0.00581527,-0.00513083,-0.00448765,-0.00388725,-0.00333087,-0.00281947,-0.00235367,-0.00193374,-0.00155958,-0.0012307,-0.000946187,-0.000704686,-0.000504388,-0.000343005,-0.000217755,-0.000125346,-6.19636e-05,-2.32658e-05,-4.39073e-06,0
0,-2.39165e-05,-9.59472e-05,-0.000216535,-0.000386103,-0.000604923,-0.000873042,-0.00119024,-0.00155599,-0.0019695,-0.00242969,-0.00293522,-0.00348452,-0.0040758,-0.00470714,-0.00537643,-0.00608148,-0.00681998,-0.00758959,-0.00838788,-0.00921244,-0.0100608,-0.0109306,-0.0118193,-0.0127247,-0.0136442,-0.0145756,-0.0155167,-0.0164651,-0.0174187,-0.0183753,-0.0193329,-0.0202893,-0.0212426,-0.0221908,-0.023132,-0.0240642,-0.0249856,-0.0258945,-0.0267889,-0.0276671,-0.0285274,-0.0293681,-0.0301875,-0.0309839,-0.0317557,-0.0325012,-0.0332189,-0.0339071,-0.0345644,-0.0351892,-0.03578,-0.0363354,-0.0368539,-0.0373342,-0.0377749,-0.0381747,-0.0385324,-0.0388469,-0.0391169,-0.0393416,-0.0395198,-0.0396508,-0.0397337,-0.0397679,-0.0397527,-0.0396877,-0.0395726,-0.039407,-0.0391908,-0.0389242,-0.0386071,-0.0382401,-0.0378234,-0.0373578,-0.036844,-0.0362829,-0.0356757,-0.0350235,-0.0343278,-0.0335903,-0.0328126,-0.0319968,-0.0311447,-0.0302588,-0.0293414,-0.028395,-0.0274223,-0.0264261,-0.0254093,-0.024375,-0.0233262,-0.0222662,-0.0211983,-0.0201258,-0.0190522,-0.0179809,-0.0169153,-0.0158588,-0.014815,-0.0137872,-0.0127787,-0.0117927,-0.0108325,-0.00990116,-0.00900148,-0.00813626,-0.00730808,-0.00651932,-0.00577214,-0.00506844,-0.00440987,-0.00379779,-0.00323325,-0.00271696,-0.00224928,-0.0018302,-0.0014593,-0.00113577,-0.000858347,-0.000625337,-0.000434593,-0.000283504,-0.000169002,-8.75571e-05,-3.52057e-05,-7.58282e-06,0
0,-2.81514e-05,-0.000111854,-0.00025061,-0.000444012,-0.000691613,-0.000992848,-0.00134697,-0.00175303,-0.00220986,-0.00271605,-0.00327002,-0.00386997,-0.00451393,-0.00519979,-0.0059253,-0.00668813,-0.00748584,-0.00831596,-0.00917597,-0.0100633,-0.0109755,-0.0119098,-0.012864,-0.0138353,-0.0148213,-0.0158197,-0.0168279,-0.0178437,-0.0188647,-0.0198888,-0.0209136,-0.0219369,-0.0229568,-0.023971,-0.0249776,-0.0259745,-0.0269598,-0.0279315,-0.0288877,-0.0298266,-0.0307463,-0.0316449,-0.0325207,-0.0333719,-0.0341968,-0.0349936,-0.0357606,-0.0364962,-0.0371987,-0.0378665,-0.038498,-0.0390917,-0.039646,-0.0401595,-0.0406308,-0.0410585,-0.0414413,-0.041778,-0.0420673,-0.0423082,-0.0424996,-0.0426406,-0.0427304,-0.0427683,-0.0427536,-0.0426857,-0.0425644,-0.0423894,-0.0421605,-0.0418777,-0.0415413,-0.0411516,-0.0407089,-0.0402141,-0.0396678,-0.0390712,-0.0384252,-0.0377313,-0.036991,-0.0362059,-0.035378,-0.0345091,-0.0336015,-0.0326576,-0.0316799,-0.0306711,-0.0296339,-0.0285714,-0.0274866,-0.0263827,-0.025263,-0.024131,-0.02299,-0.0218438,-0.0206957,-0.0195496,-0.018409,-0.0172775,-0.0161589,-0.0150566,-0.0139743,-0.0129154,-0.0118831,-0.0108808,-0.00991158,-0.0089783,-0.00808372,-0.00723037,-0.00642055,-0.00565631,-0.00493942,-0.00427136,-0.0036533,-0.00308604,-0.00257005,-0.00210542,-0.00169184,-0.00132861,-0.00101459,-0.000748222,-0.000527528,-0.000350096,-0.0002131,-0.000113315,-4.71608e-05,-1.07526e-05,0
0,-3.22741e-05,-0.00012742,-0.000284078,-0.000501056,-0.000777215,-0.00111138,-0.00150228,-0.00194851,-0.00244852,-0.00300058,-0.00360281,-0.00425317,-0.00494949,-0.00568946,-0.00647069,-0.00729068,-0.00814688,-0.00903667,-0.00995743,-0.0109065,-0.0118812,-0.0128789,-0.013897,-0.0149328,-0.0159837,-0.0170473,-0.018121,-0.0192024,-0.020289,-0.0213786,-0.0224686,-0.023557,-0.0246415,-0.0257198,-0.0267898,-0.0278494,-0.0288966,-0.0299293,-0.0309454,-0.0319431,-0.0329203,-0.0338751,-0.0348057,-0.0357101,-0.0365866,-0.0374332,-0.0382482,-0.0390299,-0.0397765,-0.0404862,-0.0411575,-0.0417886,-0.0423781,-0.0429243,-0.0434257,-0.0438809,-0.0442885,-0.0446473,-0.0449559,-0.0452131,-0.045418,-0.0455695,-0.0456668,-0.045709,-0.0456955,-0.0456258,-0.0454994,-0.0453161,-0.0450757,-0.0447783,-0.044424,-0.0440131,-0.0435462,-0.0430239,-0.0424471,-0.0418167,-0.0411341,-0.0404005,-0.0396176,-0.0387871,-0.0379109,-0.0369912,-0.0360303,-0.0350306,-0.0339948,-0.0329256,-0.0318261,-0.0306994,-0.0295486,-0.0283771,-0.0271885,-0.0259863,-0.0247741,-0.0235557,-0.0223348,-0.0211153,-0.0199011,-0.0186959,-0.0175037,-0.016328,-0.0151728,-0.0140416,-0.012938,-0.0118654,-0.010827,-0.0098259,-0.00886508,-0.00794719,-0.00707468,-0.00624973,-0.00547426,-0.00474988,-0.00407786,-0.00345915,-0.00289433,-0.0023836,-0.00192679,-0.00152332,-0.00117219,-0.000872007,-0.000620976,-0.000416898,-0.000257204,-0.000138978,-5.90118e-05,-1.38708e-05,0
0,-3.62793e-05,-0.00014261,-0.00031684,-0.000557045,-0.00086142,-0.0012282,-0.00165558,-0.00214171,-0.00268464,-0.00328229,-0.00393248,-0.00463293,-0.00538122,-0.00617487,-0.00701129,-0.00788785,-0.00880183,-0.00975052,-0.0107311,-0.0117409,-0.0127771,-0.013837,-0.0149177,-0.0160167,-0.0171312,-0.0182585,-0.0193962,-0.0205415,-0.0216921,-0.0228454,-0.0239991,-0.0251508,-0.0262981,-0.0274387,-0.0285704,-0.0296911,-0.0307985,-0.0318904,-0.0329649,-0.0340197,-0.0350529,-0.0360625,-0.0370464,-0.0380027,-0.0389294,-0.0398247,-0.0406867,-0.0415134,-0.0423032,-0.0430541,-0.0437644,-0.0444324,-0.0450565,-0.0456349,-0.0461662,-0.0466488,-0.0470813,-0.0474622,-0.0477903,-0.0480643,-0.0482831,-0.0484457,-0.0485511,-0.0485985,-0.0485872,-0.0485166,-0.0483863,-0.048196,-0.0479454,-0.0476347,-0.047264,-0.0468336,-0.0463441,-0.0457961,-0.0451904,-0.0445282,-0.0438107,-0.0430394,-0.0422158,-0.0413418,-0.0404194,-0.0394509,-0.0384385,-0.037385,-0.0362929,-0.0351654,-0.0340053,-0.0328161,-0.0316011,-0.0303637,-0.0291077,-0.0278367,-0.0265547,-0.0252654,-0.023973,-0.0226813,-0.0213945,-0.0201165,-0.0188513,-0.0176031,-0.0163755,-0.0151725,-0.0139979,-0.0128551,-0.0117477,-0.0106789,-0.00965177,-0.00866918,-0.00773373,-0.00684776,-0.00601333,-0.00523218,-0.00450574,-0.00383508,-0.00322092,-0.0026636,-0.00216308,-0.00171891,-0.00133028,-0.000995966,-0.000714353,-0.000483475,-0.00030102,-0.000164375,-7.06828e-05,-1.69196e-05,0
0,-4.01665e-05,-0.000157408,-0.000348844,-0.000611865,-0.000944034,-0.00134301,-0.00180648,-0.00233212,-0.00291759,-0.00356046,-0.00425824,-0.00500836,-0.0058082,-0.00665504,-0.00754612,-0.00847864,-0.00944975,-0.0104566,-0.0114963,-0.0125659,-0.0136626,-0.0147836,-0.0159259,-0.0170868,-0.0182635,-0.0194533,-0.0206535,-0.0218615,-0.0230746,-0.0242902,-0.025506,-0.0267194,-0.027928,-0.0291295,-0.0303214,-0.0315016,-0.0326677,-0.0338175,-0.0349488,-0.0360595,-0.0371474,-0.0382105,-0.0392466,-0.0402536,-0.0412297,-0.0421727,-0.0430807,-0.0439517,-0.0447839,-0.0455754,-0.0463243,-0.0470288,-0.0476872,-0.0482978,-0.0488589,-0.049369,-0.0498265,-0.0502299,-0.0505779,-0.0508692,-0.0511025,-0.0512769,-0.0513913,-0.0514448,-0.0514367,-0.0513664,-0.0512334,-0.0510373,-0.050778,-0.0504555,-0.05007,-0.0496217,-0.0491111,-0.0485391,-0.0479064,-0.0472141,-0.0464636,-0.0456562,-0.0447938,-0.0438781,-0.0429113,-0.0418957,-0.0408336,-0.0397279,-0.0385813,-0.0373969,-0.0361779,-0.0349277,-0.0336498,-0.0323479,-0.0310257,-0.0296872,-0.0283364,-0.0269773,-0.0256141,-0.024251,-0.0228922,-0.021542,-0.0202044,-0.0188838,-0.0175842,-0.0163096,-0.0150639,-0.013851,-0.0126744,-0.0115376,-0.0104439,-0.00939625,-0.00839744,-0.00744998,-0.00655609,-0.00571765,-0.00493625,-0.00421311,-0.00354909,-0.00294468,-0.0024,-0.00191476,-0.00148832,-0.00111963,-0.000807289,-0.000549554,-0.000344368,-0.000189404,-8.21305e-05,-1.989e-05,0
0,-4.3938e-05,-0.000171811,-0.000380069,-0.00066546,-0.00102495,-0.00145564,-0.00195471,-0.00251941,-0.00314697,-0.0038346,-0.00457951,-0.00537885,-0.00622974,-0.00712925,-0.00807444,-0.00906233,-0.0100899,-0.0111542,-0.0122521,-0.0133808,-0.0145371,-0.0157182,-0.0169211,-0.0181429,-0.0193808,-0.0206319,-0.0218934,-0.0231627,-0.024437,-0.0257138,-0.0269903,-0.0282642,-0.0295328,-0.0307937,-0.0320446,-0.033283,-0.0345065,-0.035713,-0.0369,-0.0380655,-0.039207,-0.0403225,-0.0414098,-0.0424668,-0.0434913,-0.0444813,-0.0454347,-0.0463495,-0.0472237,-0.0480554,-0.0488426,-0.0495835,-0.0502762,-0.050919,-0.0515101,-0.0520478,-0.0525307,-0.052957,-0.0533255,-0.0536348,-0.0538835,-0.0540705,-0.0541949,-0.0542556,-0.0542519,-0.0541831,-0.0540487,-0.0538483,-0.0535817,-0.0532489,-0.0528501,-0.0523855,-0.0518556,-0.0512612,-0.0506031,-0.0498825,-0.0491006,-0.048259,-0.0473594,-0.0464038,-0.0453942,-0.0443331,-0.0432229,-0.0420665,-0.0408668,-0.039627,-0.0383504,-0.0370404,-0.0357008,-0.0343354,-0.032948,-0.0315428,-0.0301239,-0.0286957,-0.0272623,-0.0258282,-0.0243978,-0.0229755,-0.0215657,-0.0201728,-0.018801,-0.0174546,-0.0161377,-0.0148543,-0.0136081,-0.0124029,-0.0112421,-0.0101288,-0.00906604,-0.00805647,-0.00710247,-0.00620611,-0.00536913,-0.00459291,-0.00387847,-0.00322648,-0.00263719,-0.00211053,-0.00164599,-0.00124274,-0.000899581,-0.00061499,-0.000387154,-0.000214015,-9.33369e-05,-2.27793e-05,0
0,-4.7598e-05,-0.000185826,-0.000410513,-0.00071781,-0.00110411,-0.00156599,-0.00210015,-0.00270337,-0.0033725,-0.00410439,-0.00489592,-0.00574396,-0.00664538,-0.00759703,-0.00859576,-0.00963841,-0.0107218,-0.0118429,-0.0129984,-0.0141853,-0.0154004,-0.0166408,-0.0179034,-0.0191851,-0.0204831,-0.0217944,-0.0231163,-0.0244458,-0.0257802,-0.0271169,-0.0284531,-0.0297862,-0.0311137,-0.0324331,-0.0337417,-0.0350372,-0.0363172,-0.0375793,-0.0388211,-0.0400403,-0.0412346,-0.0424018,-0.0435395,-0.0446457,-0.0457181,-0.0467546,-0.047753,-0.0487112,-0.0496272,-0.0504989,-0.0513244,-0.0521017,-0.0528288,-0.053504,-0.0541255,-0.0546914,-0.0552002,-0.0556502,-0.0560399,-0.0563679,-0.0566329,-0.0568337,-0.0569691,-0.0570382,-0.0570402,-0.0569742,-0.0568398,-0.0566366,-0.0563643,-0.0560228,-0.0556123,-0.055133,-0.0545855,-0.0539704,-0.0532887,-0.0525414,-0.0517299,-0.0508557,-0.0499205,-0.0489265,-0.0478756,-0.0467705,-0.0456137,-0.044408,-0.0431564,-0.0418624,-0.0405292,-0.0391605,-0.0377601,-0.0363319,-0.0348801,-0.0334088,-0.0319223,-0.0304252,-0.0289219,-0.027417,-0.025915,-0.0244206,-0.0229383,-0.0214728,-0.0200285,-0.0186099,-0.0172213,-0.0158668,-0.0145504,-0.0132761,-0.0120474,-0.0108677,-0.00974018,-0.00866771,-0.00765283,-0.00669779,-0.0058045,-0.00497452,-0.00420905,-0.00350892,-0.00287458,-0.0023061,-0.0018032,-0.00136522,-0.000991171,-0.000679744,-0.000429358,-0.000238204,-0.000104303,-2.55896e-05,0
0,-5.11518e-05,-0.000199465,-0.000440194,-0.000768927,-0.00118152,-0.00167404,-0.00224271,-0.0028839,-0.00359404,-0.00436963,-0.00520724,-0.00610343,-0.00705482,-0.00805804,-0.00910973,-0.0102065,-0.0113452,-0.0125223,-0.0137347,-0.0149791,-0.0162523,-0.0175512,-0.0188726,-0.0202134,-0.0215707,-0.0229413,-0.0243225,-0.0257113,-0.0271049,-0.0285005,-0.0298954,-0.0312868,-0.0326722,-0.034049,-0.0354145,-0.0367663,-0.0381018,-0.0394187,-0.0407144,-0.0419867,-0.0432331,-0.0444513,-0.045639,-0.0467939,-0.0479138,-0.0489964,-0.0500395,-0.0510411,-0.0519988,-0.0529106,-0.0537745,-0.0545884,-0.0553504,-0.0560584,-0.0567107,-0.0573055,-0.0578409,-0.0583153,-0.0587272,-0.059075,-0.0593574,-0.0595731,-0.0597209,-0.0597997,-0.0598088,-0.0597471,-0.0596143,-0.0594098,-0.0591334,-0.0587848,-0.0583643,-0.0578721,-0.0573086,-0.0566745,-0.0559708,-0.0551985,-0.054359,-0.0534538,-0.0524847,-0.0514537,-0.0503631,-0.0492153,-0.048013,-0.0467592,-0.045457,-0.0441097,-0.0427209,-0.0412942,-0.0398337,-0.0383434,-0.0368275,-0.0352904,-0.0337366,-0.0321708,-0.0305975,-0.0290216,-0.0274478,-0.0258809,-0.0243258,-0.0227872,-0.0212697,-0.0197782,-0.018317,-0.0168905,-0.0155031,-0.0141587,-0.0128612,-0.0116141,-0.0104209,-0.00928457,-0.00820787,-0.00719326,-0.00624282,-0.00535831,-0.00454111,-0.00379223,-0.00311231,-0.00250162,-0.00196005,-0.00148714,-0.00108211,-0.000743862,-0.000471019,-0.000261996,-0.000115045,-2.83268e-05,0
0,-5.46052e-05,-0.000212745,-0.000469136,-0.000818838,-0.0012572,-0.0017798,-0.00238241,-0.00306098,-0.00381154,-0.00463025,-0.00551335,-0.00645712,-0.00745791,-0.00851212,-0.00961618,-0.0107666,-0.0119598,-0.0131924,-0.014461,-0.0157623,-0.0170928,-0.0184495,-0.0198289,-0.0212281,-0.0226438,-0.024073,-0.0255127,-0.0269599,-0.0284118,-0.0298655,-0.0313182,-0.0327672,-0.0342096,-0.035643,-0.0370646,-0.0384719,-0.0398623,-0.0412333,-0.0425824,-0.0439071,-0.0452051,-0.0464739,-0.0477112,-0.0489146,-0.0500818,-0.0512104,-0.0522983,-0.0533431,-0.0543427,-0.0552949,-0.0561975,-0.0570485,-0.0578457,-0.0585873,-0.0592712,-0.0598955,-0.0604585,-0.0609584,-0.0613935,-0.0617623,-0.0620634,-0.0622953,-0.0624568,-0.0625469,-0.0625645,-0.0625088,-0.0623791,-0.062175,-0.0618961,-0.0615423,-0.0611135,-0.06061,-0.0600323,-0.059381,-0.058657,-0.0578614,-0.0569955,-0.0560608,-0.0550593,-0.0539928,-0.0528638,-0.0516747,-0.0504282,-0.0491274,-0.0477754,-0.0463757,-0.044932,-0.043448,-0.0419279,-0.0403758,-0.0387961,-0.0371933,-0.0355722,-0.0339375,-0.032294,-0.0306467,-0.0290005,-0.0273606,-0.0257318,-0.0241193,-0.0225278,-0.0209623,-0.0194275,-0.0179281,-0.0164684,-0.0150528,-0.0136853,-0.0123697,-0.0111096,-0.00990825,-0.00876864,-0.0076934,-0.00668484,-0.0057449,-0.00487516,-0.00407683,-0.00335075,-0.00269736,-0.00211676,-0.0016087,-0.00117256,-0.000807458,-0.000512217,-0.000285447,-0.000125592,-3.09998e-05,0
0,-5.79645e-05,-0.000225684,-0.000497371,-0.000867587,-0.0013312,-0.00188332,-0.00251929,-0.00323463,-0.00402501,-0.00488624,-0.00581423,-0.00680498,-0.00785458,-0.00895919,-0.010115,-0.0113184,-0.0125656,-0.0138531,-0.0151773,-0.0165348,-0.017922,-0.0193357,-0.0207726,-0.0222293,-0.0237028,-0.0251898,-0.0266873,-0.0281922,-0.0297017,-0.0312128,-0.0327226,-0.0342283,-0.0357272,-0.0372165,-0.0386936,-0.0401558,-0.0416005,-0.0430251,-0.0444271,-0.045804,-0.0471533,-0.0484725,-0.0497591,-0.0510109,-0.0522253,-0.0534,-0.0545327,-0.0556211,-0.0566629,-0.0576559,-0.0585977,-0.0594864,-0.0603196,-0.0610954,-0.0618118,-0.0624667,-0.0630584,-0.0635848,-0.0640445,-0.0644356,-0.0647567,-0.0650063,-0.0651831,-0.065286,-0.0653138,-0.0652658,-0.0651411,-0.0649391,-0.0646596,-0.0643022,-0.063867,-0.0633541,-0.062764,-0.0620972,-0.0613546,-0.0605373,-0.0596467,-0.0586842,-0.0576516,-0.0565511,-0.055385,-0.0541557,-0.0528661,-0.0515193,-0.0501184,-0.0486671,-0.0471691,-0.0456283,-0.0440488,-0.0424351,-0.0407917,-0.0391232,-0.0374345,-0.0357305,-0.0340162,-0.0322969,-0.0305777,-0.0288638,-0.0271605,-0.0254729,-0.0238063,-0.0221657,-0.020556,-0.0189822,-0.0174489,-0.0159607,-0.0145218,-0.0131363,-0.0118079,-0.0105403,-0.00933646,-0.00819939,-0.00713158,-0.00613517,-0.00521197,-0.00436337,-0.00359043,-0.00289378,-0.00227372,-0.00173018,-0.00126274,-0.000870706,-0.000553073,-0.000308629,-0.00013598,-3.36194e-05,0