-0,-0,-0,-0,-0,-0,-0,-0,-0,-0,-0,-0,-0,-0,-0,-0,-0,-0,-0,-0,-0,-0,-0,-0,-0,-0,-0,-0,-0,-0,-0,-0,-0,-0,-0,-0,-0,-0,-0,-0,-0,-0,-0,-0,-0,-0,-0,-0,-0,-0,-0,-0,-0,-0,-0,-0,-0,-0,-0,-0,-0,-0,-0,-0,-0,-0,-0,-0,-0,-0,-0,-0,-0,-0,-0,-0,-0,-0,-0,-0,-0,-0,-0,-0,-0,-0,-0,-0,-0,-0,-0,-0,-0,-0,-0,-0,-0,-0,-0,-0,-0,-0,-0,-0,-0,-0,-0,-0,-0,-0,-0,-0,-0,-0,-0,-0,-0,-0,-0,-0,-0,-0,-0,-0,-0,-0,-0,-0
-0,-5.07509e-06,-7.64379e-06,-7.35324e-06,-5.13809e-06,-1.79318e-06,2.15914e-06,6.39361e-06,1.0708e-05,1.49752e-05,1.91144e-05,2.30744e-05,2.68234e-05,3.03428e-05,3.36225e-05,3.6659e-05,3.94529e-05,4.2008e-05,4.43302e-05,4.64267e-05,4.83058e-05,4.99762e-05,5.14469e-05,5.27271e-05,5.38256e-05,5.47511e-05,5.5512e-05,5.61161e-05,5.65708e-05,5.68831e-05,5.70593e-05,5.71051e-05,5.70258e-05,5.68262e-05,5.65104e-05,5.6082e-05,5.55442e-05,5.48998e-05,5.41509e-05,5.32994e-05,5.2347e-05,5.12948e-05,5.01437e-05,4.88945e-05,4.75477e-05,4.61038e-05,4.4563e-05,4.29257e-05,4.11921e-05,3.93626e-05,3.74377e-05,3.5418e-05,3.33044e-05,3.10979e-05,2.87998e-05,2.64119e-05,2.39362e-05,2.13752e-05,1.87318e-05,1.60093e-05,1.32116e-05,1.03431e-05,7.40872e-06,4.414e-06,1.36497e-06,-1.73172e-06,-4.86884e-06,-8.03861e-06,-1.12326e-05,-1.4442e-05,-1.76573e-05,-2.08685e-05,-2.40651e-05,-2.72364e-05,-3.03709e-05,-3.34571e-05,-3.64831e-05,-3.94366e-05,-4.23054e-05,-4.50769e-05,-4.77388e-05,-5.02785e-05,-5.26838e-05,-5.49425e-05,-5.70428e-05,-5.89733e-05,-6.07229e-05,-6.22811e-05,-6.3638e-05,-6.47845e-05,-6.57122e-05,-6.64134e-05,-6.68814e-05,-6.71106e-05,-6.70961e-05,-6.68344e-05,-6.6323e-05,-6.55603e-05,-6.45462e-05,-6.32817e-05,-6.17689e-05,-6.00114e-05,-5.80137e-05,-5.57818e-05,-5.33229e-05,-5.06456e-05,-4.77596e-05,-4.46762e-05,-4.14082e-05,-3.79698e-05,-3.43771e-05,-3.06484e-05,-2.68042e-05,-2.28683e-05,-1.88682e-05,-1.48364e-05,-1.08123e-05,-6.84425e-06,-2.99387e-06,6.58766e-07,4.00623e-06,6.90026e-06,9.13107e-06,1.03982e-05,1.02824e-05,8.2806e-06,4.18888e-06,-0
-0,-1.51979e-05,-2.0666e-05,-1.8128e-05,-9.95267e-06,1.85537e-06,1.58285e-05,3.09485e-05,4.65217e-05,6.20778e-05,7.72988e-05,9.19708e-05,0.000105952,0.000119152,0.000131516,0.000143016,0.00015364,0.000163393,0.000172287,0.000180343,0.000187586,0.000194043,0.000199744,0.000204719,0.000209,0.000212617,0.000215599,0.000217974,0.000219769,0.00022101,0.000221719,0.000221918,0.000221626,0.000220861,0.000219639,0.000217974,0.000215878,0.000213361,0.000210432,0.0002071,0.000203369,0.000199246,0.000194735,0.000189838,0.00018456,0.000178901,0.000172864,0.000166451,0.000159664,0.000152505,0.000144977,0.000137082,0.000128825,0.000120211,0.000111245,0.000101935,9.22903e-05,8.232e-05,7.20363e-05,6.14527e-05,5.05848e-05,3.945e-05,2.80677e-05,1.64596e-05,4.64929e-06,-7.33733e-06,-1.94722e-05,-3.17253e-05,-4.40641e-05,-5.64545e-05,-6.886e-05,-8.12425e-05,-9.35621e-05,-0.000105777,-0.000117844,-0.00012972,-0.000141358,-0.000152713,-0.000163737,-0.000174384,-0.000184606,-0.000194356,-0.000203588,-0.000212256,-0.000220315,-0.000227722,-0.000234435,-0.000240415,-0.000245625,-0.00025003,-0.000253599,-0.000256303,-0.000258117,-0.00025902,-0.000258994,-0.000258026,-0.000256107,-0.000253231,-0.000249399,-0.000244615,-0.000238888,-0.000232231,-0.000224664,-0.00021621,-0.000206897,-0.00019676,-0.000185838,-0.000174176,-0.000161825,-0.000148841,-0.000135291,-0.000121248,-0.000106794,-9.20268e-05,-7.70564e-05,-6.20136e-05,-4.70548e-05,-3.23703e-05,-1.81964e-05,-4.83213e-06,7.33674e-06,1.78054e-05,2.59085e-05,3.0777e-05,3.133e-05,2.64138e-05,1.54058e-05,-0
-0,-2.57783e-05,-3.24534e-05,-2.47652e-05,-6.87204e-06,1.78687e-05,4.69074e-05,7.83762e-05,0.000110932,0.000143621,0.000175768,0.000206902,0.0002367,0.000264941,0.000291488,0.000316258,0.00033921,0.000360337,0.000379653,0.000397189,0.000412988,0.000427103,0.000439589,0.000450507,0.000459917,0.000467882,0.00047446,0.00047971,0.000483687,0.000486444,0.000488029,0.000488487,0.000487859,0.000486184,0.000483495,0.000479822,0.000475192,0.000469627,0.000463147,0.00045577,0.00044751,0.000438379,0.000428386,0.000417541,0.000405849,0.000393318,0.000379953,0.000365758,0.00035074,0.000334905,0.000318259,0.00030081,0.000282569,0.000263548,0.000243761,0.000223225,0.00020196,0.000179989,0.00015734,0.000134043,0.000110133,8.56486e-05,6.06333e-05,3.51349e-05,9.20572e-06,-1.70973e-05,-4.37126e-05,-7.05739e-05,-9.76108e-05,-0.000124748,-0.000151907,-0.000179004,-0.000205952,-0.000232661,-0.000259037,-0.000284985,-0.000310406,-0.000335201,-0.000359267,-0.000382504,-0.000404809,-0.000426081,-0.000446218,-0.000465124,-0.000482701,-0.000498857,-0.000513502,-0.000526551,-0.000537925,-0.00054755,-0.000555357,-0.000561286,-0.000565284,-0.000567305,-0.000567311,-0.000565274,-0.000561176,-0.000555007,-0.000546766,-0.000536465,-0.000524124,-0.000509774,-0.000493457,-0.000475226,-0.000455146,-0.000433291,-0.000409751,-0.000384626,-0.000358029,-0.00033009,-0.000300955,-0.00027079,-0.000239781,-0.000208142,-0.000176123,-0.000144011,-0.000112152,-8.0955e-05,-5.09245e-05,-2.26813e-05,2.99713e-06,2.51309e-05,4.24859e-05,5.35333e-05,5.64605e-05,4.9334e-05,3.05855e-05,-0
-0,-3.3443e-05,-3.81714e-05,-2.17801e-05,9.71375e-06,5.15709e-05,0.000100137,0.000152649,0.00020705,0.000261825,0.000315869,0.000368386,0.00041881,0.000466748,0.000511937,0.000554211,0.000593481,0.000629708,0.000662901,0.000693094,0.000720347,0.000744736,0.000766346,0.000785271,0.000801606,0.00081545,0.000826899,0.000836048,0.000842988,0.000847805,0.00085058,0.000851388,0.0008503,0.000847377,0.000842679,0.000836255,0.000828151,0.000818408,0.00080706,0.000794136,0.000779663,0.000763662,0.000746151,0.000727147,0.000706663,0.000684711,0.000661303,0.000636448,0.000610159,0.000582447,0.000553327,0.000522815,0.000490931,0.000457695,0.000423137,0.000387286,0.000350179,0.000311859,0.000272373,0.000231776,0.00019013,0.000147504,0.000103973,5.96215e-05,1.45406e-05,-3.11704e-05,-7.74043e-05,-0.000124046,-0.000170974,-0.000218058,-0.000265162,-0.000312141,-0.000358846,-0.000405121,-0.000450807,-0.000495737,-0.000539743,-0.000582655,-0.000624297,-0.000664495,-0.000703076,-0.000739865,-0.00077469,-0.000807383,-0.00083778,-0.000865723,-0.000891057,-0.00091364,-0.000933334,-0.000950015,-0.000963565,-0.000973883,-0.000980877,-0.00098447,-0.000984599,-0.000981217,-0.000974293,-0.000963811,-0.000949773,-0.000932198,-0.000911124,-0.000886606,-0.000858719,-0.000827557,-0.000793232,-0.000755878,-0.000715651,-0.000672728,-0.000627311,-0.000579628,-0.000529936,-0.000478526,-0.000425729,-0.000371919,-0.000317529,-0.000263061,-0.000209102,-0.000156349,-0.000105637,-5.79798e-05,-1.46124e-05,2.29517e-05,5.28657e-05,7.29077e-05,8.04856e-05,7.27385e-05,4.67785e-05,-0
-0,-3.59366e-05,-3.43578e-05,-5.14033e-06,4.40138e-05,0.000107059,0.000179278,0.00025703,0.000337534,0.000418689,0.000498922,0.00057707,0.000652287,0.000723968,0.000791694,0.000855193,0.0009143,0.000968936,0.00101908,0.00106478,0.00110609,0.00114312,0.00117597,0.00120477,0.00122967,0.00125079,0.00126827,0.00128225,0.00129286,0.00130023,0.00130447,0.00130569,0.00130401,0.0012995,0.00129226,0.00128236,0.00126988,0.00125486,0.00123737,0.00121746,0.00119515,0.00117049,0.00114351,0.00111422,0.00108266,0.00104884,0.00101279,0.00097452,0.000934051,0.000891406,0.000846608,0.000799684,0.000750667,0.000699593,0.000646506,0.000591455,0.0005345,0.000475706,0.000415149,0.000352914,0.000289097,0.000223805,0.000157155,8.92752e-05,2.03068e-05,-4.95983e-05,-0.000120276,-0.000191552,-0.000263239,-0.000335139,-0.000407046,-0.000478739,-0.000549993,-0.000620572,-0.000690232,-0.000758724,-0.000825792,-0.000891178,-0.00095462,-0.00101585,-0.00107461,-0.00113064,-0.00118368,-0.00123347,-0.00127977,-0.00132234,-0.00136094,-0.00139537,-0.00142541,-0.00145089,-0.00147161,-0.00148744,-0.00149823,-0.00150387,-0.00150427,-0.00149935,-0.00148908,-0.00147342,-0.00145238,-0.001426,-0.00139434,-0.00135747,-0.00131552,-0.00126864,-0.00121699,-0.00116078,-0.00110026,-0.0010357,-0.000967404,-0.000895736,-0.000821088,-0.00074391,-0.000664706,-0.000584053,-0.000502607,-0.000421126,-0.000340486,-0.000261716,-0.000186032,-0.000114878,-4.99838e-05,6.5794e-06,5.2337e-05,8.4361e-05,9.92448e-05,9.31143e-05,6.16509e-05,-0
-0,-3.18348e-05,-1.86385e-05,2.80526e-05,9.9147e-05,0.000187447,0.000287264,0.000394136,0.000504585,0.000615931,0.000726125,0.000833621,0.000937268,0.00103623,0.0011299,0.00121789,0.00129993,0.0013759,0.00144573,0.00150946,0.00156716,0.00161893,0.00166492,0.0017053,0.00174022,0.00176987,0.00179443,0.00181408,0.00182899,0.00183933,0.00184527,0.00184694,0.00184449,0.00183806,0.00182775,0.00181367,0.00179591,0.00177457,0.00174971,0.00172141,0.00168971,0.00165466,0.00161632,0.00157472,0.00152989,0.00148187,0.00143068,0.00137636,0.00131893,0.00125842,0.00119489,0.00112836,0.00105888,0.000986518,0.000911328,0.000833386,0.000752776,0.000669596,0.000583954,0.000495973,0.000405789,0.000313555,0.000219437,0.000123619,2.6298e-05,-7.23097e-05,-0.000171974,-0.000272447,-0.000373468,-0.000474759,-0.000576027,-0.000676968,-0.000777264,-0.000876585,-0.00097459,-0.00107093,-0.00116525,-0.0012572,-0.00134639,-0.00143247,-0.00151507,-0.00159383,-0.00166838,-0.00173838,-0.00180347,-0.00186333,-0.00191764,-0.0019661,-0.00200842,-0.00204435,-0.00207364,-0.00209607,-0.00211147,-0.00211966,-0.00212053,-0.00211398,-0.00209994,-0.00207839,-0.00204934,-0.00201283,-0.00196895,-0.00191783,-0.00185962,-0.00179454,-0.00172284,-0.00164482,-0.0015608,-0.00147119,-0.00137643,-0.00127701,-0.00117351,-0.00106655,-0.000956844,-0.000845203,-0.00073254,-0.000619902,-0.000508491,-0.0003997,-0.000295151,-0.000196746,-0.000106724,-2.77189e-05,3.71657e-05,8.42979e-05,0.000109453,0.000107743,7.35012e-05,-0
-0,-2.02848e-05,1.0536e-05,7.98024e-05,0.000177356,0.000295041,0.000426326,0.000566006,0.000709963,0.000854965,0.000998503,0.00113865,0.00127393,0.00140328,0.0015259,0.00164125,0.00174896,0.00184883,0.00194077,0.00202477,0.00210091,0.00216931,0.00223013,0.00228357,0.00232982,0.00236912,0.00240168,0.00242773,0.00244749,0.00246117,0.00246897,0.00247109,0.0024677,0.00245898,0.00244506,0.0024261,0.00240221,0.00237351,0.00234009,0.00230205,0.00225945,0.00221237,0.00216086,0.00210499,0.00204479,0.00198031,0.0019116,0.0018387,0.00176165,0.0016805,0.0015953,0.00150612,0.00141301,0.00131607,0.00121537,0.00111103,0.00100315,0.000891868,0.000777333,0.00065971,0.000539184,0.00041596,0.000290262,0.000162334,3.24435e-05,-9.91236e-05,-0.000232059,-0.000366035,-0.000500701,-0.000635691,-0.000770616,-0.000905072,-0.00103864,-0.00117088,-0.00130134,-0.00142957,-0.00155508,-0.00167742,-0.00179609,-0.00191061,-0.00202049,-0.00212527,-0.00222445,-0.00231759,-0.00240422,-0.00248391,-0.00255625,-0.00262082,-0.00267728,-0.00272526,-0.00276445,-0.00279458,-0.00281539,-0.00282669,-0.0028283,-0.0028201,-0.002802,-0.00277399,-0.00273607,-0.0026883,-0.00263081,-0.00256376,-0.00248738,-0.00240194,-0.00230778,-0.0022053,-0.00209496,-0.00197728,-0.00185285,-0.00172234,-0.0015865,-0.00144618,-0.00130232,-0.00115598,-0.00100837,-0.000860841,-0.000714954,-0.000572484,-0.000435478,-0.000306305,-0.000187715,-8.29036e-05,4.41248e-06,6.99151e-05,0.000108592,0.000114616,8.11449e-05,-0
-0,-8.14939e-07,5.41132e-05,0.000151421,0.000280181,0.000431485,0.000598097,0.000774171,0.000955017,0.0011369,0.00131687,0.00149265,0.00166245,0.00182496,0.00197918,0.00212442,0.0022602,0.00238625,0.00250242,0.00260867,0.00270507,0.00279176,0.0028689,0.00293672,0.00299546,0.00304538,0.00308674,0.00311982,0.00314489,0.00316219,0.00317198,0.0031745,0.00316996,0.00315857,0.00314052,0.00311598,0.00308511,0.00304805,0.00300491,0.00295582,0.00290087,0.00284016,0.00277375,0.00270172,0.00262413,0.00254105,0.00245253,0.00235863,0.00225941,0.00215495,0.0020453,0.00193056,0.00181081,0.00168615,0.00155671,0.00142262,0.00128403,0.00114112,0.000994075,0.000843113,0.000688474,0.000530421,0.000369244,0.000205258,3.88039e-05,-0.000129751,-0.000300013,-0.000471561,-0.000643951,-0.000816713,-0.000989353,-0.00116136,-0.00133219,-0.00150129,-0.0016681,-0.00183202,-0.00199247,-0.00214883,-0.0023005,-0.00244686,-0.0025873,-0.00272121,-0.00284799,-0.00296706,-0.00307785,-0.0031798,-0.00327238,-0.00335509,-0.00342747,-0.00348907,-0.0035395,-0.00357842,-0.0036055,-0.00362048,-0.00362317,-0.00361339,-0.00359107,-0.00355615,-0.00350866,-0.00344869,-0.00337638,-0.00329196,-0.00319572,-0.00308801,-0.00296927,-0.00284001,-0.00270082,-0.00255237,-0.00239541,-0.00223081,-0.00205953,-0.00188263,-0.00170132,-0.00151693,-0.00133098,-0.00114517,-0.000961399,-0.000781857,-0.000609022,-0.000445731,-0.000295241,-0.000161292,-4.81957e-05,3.90821e-05,9.48025e-05,0.000112305,8.37898e-05,-0
-0,2.67957e-05,0.000112612,0.000243698,0.00040861,0.00059788,0.00080371,0.00101972,0.00124073,0.00146255,0.00168185,0.00189599,0.00210293,0.00230108,0.00248928,0.00266667,0.00283266,0.0029869,0.00312917,0.00325941,0.00337768,0.0034841,0.00357887,0.00366222,0.00373445,0.00379584,0.0038467,0.00388734,0.00391809,0.00393924,0.00395109,0.00395391,0.00394798,0.00393353,0.0039108,0.00388,0.0038413,0.00379489,0.00374092,0.00367952,0.00361082,0.00353493,0.00345194,0.00336195,0.00326504,0.00316129,0.00305077,0.00293357,0.00280976,0.00267943,0.00254267,0.00239959,0.00225031,0.00209496,0.00193369,0.00176667,0.0015941,0.0014162,0.00123321,0.00104539,0.000853054,0.000656528,0.000456171,0.000252377,4.55682e-05,-0.000163797,-0.000375232,-0.000588215,-0.000802196,-0.00101659,-0.0012308,-0.00144418,-0.00165607,-0.00186579,-0.00207263,-0.00227588,-0.0024748,-0.00266864,-0.00285666,-0.00303811,-0.00321222,-0.00337826,-0.00353548,-0.00368318,-0.00382063,-0.00394718,-0.00406216,-0.00416497,-0.00425503,-0.00433181,-0.00439481,-0.00444362,-0.00447784,-0.00449716,-0.00450133,-0.00449015,-0.00446352,-0.00442139,-0.00436378,-0.00429082,-0.00420268,-0.00409965,-0.00398209,-0.00385043,-0.00370524,-0.00354713,-0.00337684,-0.0031952,-0.00300316,-0.00280177,-0.00259222,-0.00237584,-0.00215407,-0.00192858,-0.00170118,-0.00147391,-0.00124908,-0.00102927,-0.000817391,-0.000616743,-0.000431078,-0.000264664,-0.000122371,-9.76689e-06,6.67601e-05,9.98448e-05,8.09312e-05,-0
-0,6.26043e-05,0.000186252,0.000357036,0.000563204,0.000794895,0.00104389,0.00130337,0.00156775,0.00183247,0.00209384,0.00234892,0.0025954,0.00283147,0.00305579,0.00326735,0.00346547,0.00364967,0.0038197,0.00397547,0.004117,0.00424443,0.00435797,0.00445786,0.00454444,0.00461802,0.00467895,0.0047276,0.00476433,0.00478948,0.00480339,0.00480639,0.00479879,0.00478088,0.00475292,0.00471516,0.00466781,0.0046111,0.00454519,0.00447026,0.00438645,0.0042939,0.00419273,0.00408305,0.00396496,0.00383857,0.00370396,0.00356124,0.00341052,0.00325189,0.00308548,0.00291142,0.00272986,0.00254096,0.00234492,0.00214195,0.00193228,0.00171619,0.00149397,0.00126596,0.00103252,0.000794049,0.000550991,0.00030382,5.30513e-05,-0.000200763,-0.000457031,-0.000715125,-0.000974381,-0.0012341,-0.00149354,-0.00175194,-0.00200851,-0.00226242,-0.00251282,-0.00275886,-0.00299964,-0.00323429,-0.00346188,-0.00368152,-0.00389232,-0.00409336,-0.00428377,-0.00446268,-0.00462926,-0.00478268,-0.00492218,-0.00504702,-0.00515651,-0.00525,-0.00532692,-0.00538675,-0.00542904,-0.0054534,-0.00545954,-0.00544722,-0.00541632,-0.00536679,-0.00529866,-0.00521206,-0.00510725,-0.00498454,-0.00484438,-0.00468732,-0.004514,-0.00432519,-0.00412179,-0.0039048,-0.00367535,-0.00343473,-0.00318435,-0.0029258,-0.00266083,-0.00239138,-0.00211962,-0.00184795,-0.00157904,-0.0013159,-0.00106186,-0.000820674,-0.000596581,-0.000394346,-0.00021936,-7.77356e-05,2.35723e-05,7.66183e-05,7.22724e-05,-0
-0,0.000106562,0.000275047,0.00049156,0.000744199,0.00102286,0.00131901,0.00162552,0.00193647,0.00224698,0.00255306,0.00285152,0.0031398,0.0034159,0.00367831,0.00392589,0.00415782,0.00437358,0.00457285,0.0047555,0.00492154,0.00507109,0.00520438,0.00532168,0.00542334,0.00550972,0.00558121,0.00563822,0.00568114,0.00571038,0.00572632,0.00572933,0.00571976,0.00569795,0.0056642,0.00561879,0.00556199,0.00549403,0.00541513,0.00532549,0.00522526,0.00511463,0.00499373,0.00486269,0.00472165,0.00457072,0.00441002,0.00423967,0.00405981,0.00387056,0.00367207,0.0034645,0.00324804,0.00302289,0.00278928,0.00254747,0.00229773,0.00204041,0.00177585,0.00150445,0.00122665,0.000942929,0.000653811,0.000359862,6.1692e-05,-0.000240042,-0.00054464,-0.000851358,-0.00115941,-0.00146796,-0.00177615,-0.00208307,-0.00238778,-0.00268931,-0.00298667,-0.00327883,-0.00356475,-0.00384338,-0.00411366,-0.00437452,-0.0046249,-0.00486374,-0.00509001,-0.00530268,-0.00550078,-0.00568333,-0.00584943,-0.00599822,-0.00612887,-0.00624064,-0.00633285,-0.00640488,-0.00645621,-0.00648638,-0.00649505,-0.00648195,-0.00644693,-0.00638992,-0.00631098,-0.00621027,-0.00608808,-0.00594479,-0.00578094,-0.00559717,-0.00539426,-0.00517311,-0.00493478,-0.00468046,-0.0044115,-0.00412939,-0.00383581,-0.00353261,-0.00322185,-0.00290578,-0.00258691,-0.002268,-0.00195212,-0.00164267,-0.00134341,-0.00105854,-0.000792758,-0.000551297,-0.00034003,-0.000165559,-3.53201e-05,4.22719e-05,5.76654e-05,-0
-0,0.000158551,0.000378871,0.000647192,0.000951591,0.00128183,0.0016292,0.00198632,0.00234702,0.00270617,0.00305956,0.00340374,0.00373598,0.0040541,0.00435642,0.0046417,0.00490902,0.00515777,0.0053876,0.00559832,0.00578995,0.00596259,0.00611649,0.00625194,0.0063693,0.00646899,0.00655143,0.00661706,0.00666634,0.0066997,0.00671757,0.00672039,0.00670853,0.00668237,0.00664227,0.00658854,0.00652148,0.00644136,0.00634843,0.00624292,0.00612503,0.00599493,0.00585282,0.00569883,0.00553313,0.00535586,0.00516715,0.00496716,0.00475604,0.00453396,0.00430108,0.0040576,0.00380374,0.00353975,0.00326589,0.00298247,0.00268984,0.00238837,0.00207849,0.00176067,0.00143541,0.00110328,0.000764895,0.000420914,7.2052e-05,-0.000280926,-0.000637202,-0.000995909,-0.00135613,-0.0017169,-0.00207722,-0.00243602,-0.00279221,-0.00314468,-0.00349226,-0.00383376,-0.00416799,-0.00449371,-0.00480969,-0.00511471,-0.00540752,-0.0056869,-0.00595166,-0.0062006,-0.00643258,-0.00664649,-0.00684128,-0.00701593,-0.00716952,-0.00730115,-0.00741006,-0.00749552,-0.00755693,-0.00759376,-0.00760561,-0.00759217,-0.00755327,-0.00748883,-0.00739892,-0.00728373,-0.0071436,-0.00697898,-0.00679049,-0.00657888,-0.00634506,-0.00609009,-0.00581518,-0.00552174,-0.0052113,-0.00488562,-0.00454662,-0.00419645,-0.00383745,-0.00347221,-0.00310358,-0.00273471,-0.00236902,-0.00201033,-0.00166281,-0.00133111,-0.00102034,-0.000736179,-0.000484951,-0.000273683,-0.000110224,-3.35603e-06,3.70667e-05,-0
-0,0.000218415,0.000497506,0.000823718,0.0011852,0.00157169,0.00197437,0.00238571,0.00279936,0.00321,0.00361323,0.00400544,0.00438371,0.00474572,0.00508968,0.00541422,0.00571836,0.00600142,0.00626298,0.00650286,0.00672103,0.00691762,0.00709287,0.0072471,0.0073807,0.00749411,0.0075878,0.00766226,0.00771798,0.00775544,0.00777513,0.0077775,0.007763,0.00773205,0.00768502,0.00762229,0.00754419,0.00745102,0.00734306,0.00722058,0.00708379,0.00693293,0.00676817,0.00658971,0.00639773,0.00619238,0.00597384,0.00574229,0.00549789,0.00524085,0.00497138,0.00468969,0.00439605,0.00409075,0.0037741,0.00344646,0.00310822,0.00275984,0.00240179,0.00203463,0.00165895,0.00127539,0.00088466,0.000487528,8.48158e-05,-0.000322597,-0.000733771,-0.00114771,-0.00156336,-0.00197961,-0.0023953,-0.00280924,-0.00322016,-0.00362678,-0.00402776,-0.00442175,-0.00480736,-0.00518321,-0.00554786,-0.00589992,-0.00623796,-0.00656059,-0.00686643,-0.00715413,-0.00742236,-0.00766987,-0.00789543,-0.00809791,-0.00827621,-0.00842935,-0.00855642,-0.0086566,-0.00872919,-0.0087736,-0.00878937,-0.00877613,-0.0087337,-0.00866198,-0.00856106,-0.00843116,-0.00827265,-0.00808608,-0.00787214,-0.00763169,-0.00736579,-0.00707564,-0.00676265,-0.0064284,-0.00607467,-0.00570345,-0.00531694,-0.00491756,-0.00450798,-0.00409111,-0.00367016,-0.00324862,-0.00283033,-0.00241948,-0.00202066,-0.00163893,-0.00127982,-0.000949423,-0.000654459,-0.00040234,-0.000201259,-6.02907e-05,1.05046e-05,-0
-0,0.000285971,0.000630675,0.00102083,0.00144473,0.00189216,0.00235427,0.00282345,0.00329326,0.00375824,0.00421385,0.00465633,0.00508266,0.00549039,0.00587762,0.00624291,0.0065852,0.00690376,0.00719815,0.00746815,0.00771372,0.007935,0.00813224,0.00830579,0.00845607,0.00858355,0.00868873,0.00877215,0.00883435,0.00887585,0.00889718,0.00889885,0.00888135,0.00884512,0.00879061,0.0087182,0.00862829,0.0085212,0.00839725,0.00825672,0.00809988,0.00792698,0.00773822,0.00753383,0.007314,0.00707894,0.00682883,0.00656387,0.00628428,0.00599027,0.0056821,0.00536002,0.00502433,0.00467537,0.00431349,0.00393911,0.00355269,0.00315474,0.00274581,0.00232653,0.00189758,0.00145969,0.00101367,0.000560392,0.00010079,-0.000364132,-0.000833308,-0.00130561,-0.00177983,-0.00225472,-0.00272897,-0.0032012,-0.00366999,-0.00413389,-0.00459139,-0.00504094,-0.00548098,-0.00590993,-0.00632618,-0.00672814,-0.00711419,-0.00748276,-0.00783228,-0.00816122,-0.00846809,-0.00875144,-0.00900991,-0.0092422,-0.00944707,-0.00962339,-0.00977014,-0.0098864,-0.00997137,-0.0100244,-0.0100449,-0.0100325,-0.00998697,-0.00990824,-0.00979637,-0.00965163,-0.00947443,-0.00926539,-0.00902531,-0.00875515,-0.0084561,-0.00812955,-0.00777707,-0.00740045,-0.00700171,-0.00658308,-0.00614704,-0.0056963,-0.00523385,-0.00476294,-0.00428712,-0.00381025,-0.00333655,-0.00287061,-0.00241742,-0.00198242,-0.00157155,-0.00119129,-0.000848723,-0.000551603,-0.000308415,-0.000128463,-2.19451e-05,-0
-0,0.000361025,0.000778066,0.00123815,0.00172978,0.00224284,0.00276853,0.00329922,0.00382841,0.00435057,0.00486107,0.00535608,0.00583244,0.00628766,0.00671975,0.0071272,0.0075089,0.00786409,0.0081923,0.00849329,0.00876703,0.00901367,0.00923347,0.0094268,0.00959412,0.00973594,0.00985279,0.00994526,0.0100139,0.0100594,0.0100822,0.0100828,0.0100619,0.01002,0.0099574,0.00987467,0.00977219,0.00965034,0.00950946,0.00934987,0.00917186,0.0089757,0.00876164,0.00852993,0.00828078,0.00801443,0.00773108,0.00743098,0.00711436,0.00678147,0.0064326,0.00606804,0.00568814,0.00529327,0.00488385,0.00446035,0.00402328,0.00357322,0.00311081,0.00263674,0.00215179,0.00165679,0.00115264,0.000640327,0.000120906,-0.000404498,-0.000934682,-0.00146837,-0.00200423,-0.00254083,-0.00307672,-0.00361033,-0.00414009,-0.00466435,-0.00518142,-0.00568957,-0.00618704,-0.00667205,-0.0071428,-0.00759749,-0.00803433,-0.00845154,-0.00884735,-0.00922005,-0.00956796,-0.00988946,-0.010183,-0.0104472,-0.0106805,-0.0108818,-0.0110498,-0.0111836,-0.0112822,-0.0113449,-0.0113711,-0.0113603,-0.0113122,-0.0112268,-0.0111042,-0.0109446,-0.0107485,-0.0105166,-0.0102498,-0.00994912,-0.00961597,-0.00925187,-0.00885858,-0.00843811,-0.00799271,-0.00752487,-0.00703734,-0.00653314,-0.00601556,-0.00548821,-0.00495497,-0.0044201,-0.00388817,-0.00336416,-0.00285346,-0.00236188,-0.00189575,-0.00146191,-0.00106779,-0.00072144,-0.000431596,-0.000207746,-6.01782e-05,-0
-0,0.000443379,0.000939352,0.00147529,0.00203992,0.0026233,0.00321671,0.00381257,0.00440438,0.00498658,0.00555449,0.00610424,0.00663262,0.00713706,0.00761554,0.00806651,0.00848883,0.00888171,0.00924466,0.00957746,0.00988008,0.0101527,0.0103955,0.010609,0.0107937,0.0109501,0.0110787,0.0111803,0.0112554,0.0113046,0.0113286,0.011328,0.0113034,0.0112552,0.011184,0.0110903,0.0109745,0.0108371,0.0106784,0.0104988,0.0102985,0.0100779,0.00983734,0.00957698,0.00929711,0.00899797,0.00867983,0.00834292,0.00798753,0.00761394,0.00722247,0.00681346,0.00638728,0.00594437,0.0054852,0.00501028,0.00452021,0.00401562,0.00349722,0.00296581,0.00242224,0.00186744,0.00130243,0.000728294,0.000146216,-0.000442548,-0.00103666,-0.0016347,-0.00223517,-0.00283649,-0.00343703,-0.00403507,-0.00462884,-0.00521649,-0.00579616,-0.0063659,-0.00692378,-0.0074678,-0.00799595,-0.00850624,-0.00899666,-0.00946523,-0.00990998,-0.010329,-0.0107204,-0.0110824,-0.0114133,-0.0117114,-0.0119752,-0.0122032,-0.0123942,-0.0125471,-0.0126607,-0.0127343,-0.0127671,-0.0127588,-0.0127089,-0.0126173,-0.0124842,-0.0123098,-0.0120947,-0.0118396,-0.0115456,-0.0112137,-0.0108456,-0.0104429,-0.0100076,-0.00954183,-0.00904817,-0.00852935,-0.00798839,-0.00742863,-0.00685368,-0.00626748,-0.00567428,-0.00507868,-0.00448565,-0.00390053,-0.0033291,-0.00277755,-0.00225258,-0.00176136,-0.00131164,-0.000911753,-0.000570652,-0.000297977,-0.000104076,-0
-0,0.000532836,0.0011142,0.0017318,0.00237466,0.00303302,0.00369829,0.004363,0.00502067,0.00566576,0.00629362,0.00690033,0.00748267,0.00803806,0.00856445,0.00906027,0.00952437,0.00995595,0.0103545,0.0107199,0.011052,0.0113511,0.0116175,0.0118515,0.0120538,0.0122249,0.0123654,0.0124761,0.0125575,0.0126104,0.0126354,0.0126332,0.0126044,0.0125495,0.0124692,0.0123639,0.0122341,0.0120804,0.011903,0.0117023,0.0114788,0.0112328,0.0109644,0.0106742,0.0103623,0.0100289,0.00967448,0.0092992,0.00890339,0.00848737,0.0080515,0.00759615,0.00712175,0.00662876,0.00611773,0.00558922,0.00504388,0.00448244,0.00390567,0.00331446,0.00270974,0.00209256,0.00146404,0.000825387,0.000177902,-0.000477023,-0.00113791,-0.00180318,-0.00247118,-0.00314018,-0.00380835,-0.0044738,-0.00513457,-0.00578863,-0.0064339,-0.00706825,-0.00768952,-0.0082955,-0.00888398,-0.00945274,-0.00999957,-0.0105223,-0.0110186,-0.0114866,-0.011924,-0.012329,-0.0126995,-0.0130337,-0.01333,-0.0135868,-0.0138026,-0.0139761,-0.0141063,-0.014192,-0.0142327,-0.0142277,-0.0141767,-0.0140795,-0.0139363,-0.0137473,-0.0135132,-0.0132347,-0.012913,-0.0125494,-0.0121455,-0.0117032,-0.0112246,-0.0107122,-0.0101688,-0.00959721,-0.00900091,-0.00838349,-0.0077489,-0.00710141,-0.00644563,-0.00578653,-0.00512945,-0.00448011,-0.00384466,-0.00322966,-0.00264216,-0.00208966,-0.00158022,-0.00112241,-0.000725413,-0.000398982,-0.000153515,-0
-0,0.000629205,0.00130227,0.00200727,0.00273352,0.00347148,0.00421274,0.00494995,0.00567673,0.0063876,0.00707792,0.00774381,0.00838207,0.00899013,0.00956592,0.0101079,0.0106149,0.0110862,0.0115212,0.0119199,0.0122821,0.0126082,0.0128984,0.0131533,0.0133734,0.0135594,0.0137119,0.0138316,0.0139193,0.0139757,0.0140015,0.0139974,0.013964,0.013902,0.013812,0.0136945,0.0135501,0.0133792,0.0131823,0.0129597,0.012712,0.0124394,0.0121423,0.0118209,0.0114757,0.0111068,0.0107147,0.0102995,0.00986175,0.00940168,0.00891969,0.00841621,0.00789172,0.00734674,0.00678183,0.00619765,0.0055949,0.00497437,0.00433694,0.00368356,0.00301528,0.00233322,0.00163863,0.000932839,0.00021727,-0.000506546,-0.00123698,-0.00197231,-0.00271072,-0.0034503,-0.00418904,-0.00492487,-0.00565563,-0.0063791,-0.00709298,-0.00779494,-0.00848259,-0.00915351,-0.00980528,-0.0104354,-0.0110415,-0.0116212,-0.012172,-0.0126915,-0.0131776,-0.013628,-0.0140405,-0.0144133,-0.0147443,-0.0150318,-0.0152743,-0.0154702,-0.0156184,-0.0157178,-0.0157676,-0.015767,-0.0157158,-0.0156137,-0.0154608,-0.0152575,-0.0150045,-0.0147025,-0.0143528,-0.0139569,-0.0135165,-0.0130336,-0.0125106,-0.0119502,-0.0113554,-0.0107293,-0.0100757,-0.00939855,-0.00870201,-0.00799075,-0.00726972,-0.00654428,-0.00582012,-0.00510335,-0.00440048,-0.00371844,-0.00306461,-0.00244684,-0.00187346,-0.00135329,-0.000895708,-0.000510591,-0.000208379,-0
-0,0.000732301,0.00150324,0.00230126,0.00311599,0.00393813,0.00475949,0.00557286,0.00637199,0.0071515,0.00790682,0.00863412,0.00933026,0.00999268,0.0106194,0.0112088,0.0117598,0.0122717,0.0127441,0.0131767,0.0135696,0.0139232,0.0142377,0.0145137,0.0147519,0.0149528,0.0151173,0.0152461,0.0153399,0.0153996,0.0154259,0.0154196,0.0153813,0.0153117,0.0152115,0.0150812,0.0149215,0.0147328,0.0145156,0.0142703,0.0139975,0.0136974,0.0133704,0.0130168,0.0126371,0.0122314,0.0118002,0.0113439,0.0108626,0.0103569,0.00982723,0.00927394,0.0086976,0.00809878,0.00747809,0.00683625,0.00617403,0.0054923,0.004792,0.00407418,0.00333998,0.00259063,0.0018275,0.00105202,0.000265754,-0.000529622,-0.00133234,-0.00214051,-0.00295215,-0.00376518,-0.00457741,-0.00538657,-0.0061903,-0.00698618,-0.00777169,-0.00854428,-0.00930134,-0.0100402,-0.0107583,-0.0114528,-0.0121212,-0.0127607,-0.0133687,-0.0139426,-0.0144801,-0.0149785,-0.0154356,-0.0158492,-0.0162172,-0.0165377,-0.0168088,-0.0170291,-0.0171971,-0.0173117,-0.0173718,-0.0173769,-0.0173264,-0.0172202,-0.0170583,-0.0168411,-0.0165692,-0.0162437,-0.0158658,-0.0154371,-0.0149594,-0.0144351,-0.0138666,-0.0132568,-0.012609,-0.0119268,-0.0112139,-0.0104748,-0.00971395,-0.00893636,-0.00814734,-0.00735261,-0.00655825,-0.00577072,-0.00499692,-0.00424414,-0.00352009,-0.00283294,-0.00219132,-0.00160428,-0.00108139,-0.000632652,-0.000268561,-0
-0,0.00084195,0.0017168,0.00261336,0.00352158,0.00443244,0.00533796,0.00623113,0.00710585,0.00795687,0.00877972,0.00957067,0.0103266,0.0110451,0.0117242,0.0123623,0.0129585,0.013512,0.0140225,0.0144897,0.0149139,0.0152954,0.0156345,0.0159319,0.0161883,0.0164043,0.0165808,0.0167186,0.0168185,0.0168813,0.0169079,0.016899,0.0168554,0.0167778,0.0166669,0.0165234,0.0163477,0.0161405,0.0159023,0.0156336,0.0153348,0.0150062,0.0146484,0.0142616,0.0138462,0.0134026,0.0129312,0.0124322,0.0119062,0.0113535,0.0107745,0.0101698,0.00953995,0.00888554,0.00820726,0.00750587,0.00678222,0.00603724,0.00527196,0.00448752,0.00368513,0.00286617,0.00203207,0.00118443,0.000324922,-0.000544631,-0.0014223,-0.00230606,-0.00319373,-0.00408307,-0.00497169,-0.00585712,-0.00673681,-0.00760811,-0.00846829,-0.00931458,-0.0101441,-0.0109541,-0.0117415,-0.0125034,-0.013237,-0.0139394,-0.0146076,-0.0152388,-0.0158304,-0.0163796,-0.016884,-0.017341,-0.0177484,-0.0181041,-0.0184061,-0.0186527,-0.0188423,-0.0189737,-0.0190458,-0.0190578,-0.0190092,-0.0188997,-0.0187295,-0.0184989,-0.0182085,-0.0178595,-0.0174531,-0.0169911,-0.0164756,-0.0159089,-0.0152937,-0.0146333,-0.013931,-0.0131908,-0.0124167,-0.0116134,-0.0107858,-0.00993925,-0.0090794,-0.00821234,-0.00734453,-0.00648282,-0.00563446,-0.0048071,-0.00400881,-0.00324808,-0.0025338,-0.00187531,-0.00128233,-0.000765038,-0.000333971,-0