-0,-0.000751997,-0.00257815,-0.00463504,-0.00631359,-0.00724519,-0.00722453,-0.00614835,-0.00397657,-0.000708676,0.00363082,0.00900142,0.0153526,0.0226277,0.0307667,0.039708,0.0493895,0.05975,0.0707296,0.0822698,0.0943143,0.106809,0.119702,0.132944,0.146488,0.160288,0.174301,0.188488,0.202808,0.217226,0.231705,0.246212,0.260714,0.275181,0.289582,0.303888,0.318071,0.332105,0.345961,0.359613,0.373037,0.386205,0.399094,0.411679,0.423933,0.435833,0.447354,0.458471,0.46916,0.479396,0.489156,0.498415,0.507148,0.515333,0.522946,0.529964,0.536363,0.542123,0.547222,0.551639,0.555355,0.55835,0.560609,0.562114,0.562851,0.562808,0.561972,0.560334,0.557888,0.554628,0.550551,0.545658,0.53995,0.533433,0.526114,0.518005,0.509118,0.499471,0.489084,0.47798,0.466185,0.453729,0.440644,0.426965,0.412733,0.397988,0.382774,0.36714,0.351136,0.334812,0.318225,0.301431,0.284487,0.267455,0.250395,0.23337,0.216443,0.199678,0.183138,0.166888,0.150991,0.13551,0.120505,0.106039,0.0921683,0.0789508,0.0664404,0.0546889,0.0437449,0.0336535,0.0244562,0.0161899,0.00888683,0.00257339,-0.00273029,-0.00701167,-0.0102672,-0.0125043,-0.0137441,-0.0140252,-0.0134094,-0.01199,-0.00990409,-0.00735143,-0.00462179,-0.00212795,-0.000415245,-0
-0.000751997,-0.00107472,-0.00139744,-0.00171488,-0.00177815,-0.00134632,-0.000242238,0.00164845,0.00439064,0.00801302,0.0125184,0.0178914,0.0241038,0.0311189,0.038894,0.0473827,0.0565364,0.0663055,0.07664,0.0874906,0.0988086,0.110547,0.122658,0.1351,0.147827,0.1608,0.173979,0.187325,0.200801,0.214374,0.228009,0.241673,0.255337,0.268969,0.282541,0.296024,0.309391,0.322615,0.335671,0.348533,0.361175,0.373573,0.385703,0.39754,0.409061,0.420242,0.431059,0.441489,0.451509,0.461095,0.470226,0.478879,0.487031,0.49466,0.501745,0.508264,0.514198,0.519526,0.524228,0.528288,0.531686,0.534407,0.536436,0.537758,0.53836,0.538233,0.537366,0.535751,0.533384,0.53026,0.526378,0.521739,0.516346,0.510204,0.503322,0.49571,0.487382,0.478355,0.468646,0.458279,0.447277,0.435668,0.423483,0.410754,0.397517,0.383811,0.369677,0.355157,0.340298,0.325147,0.309753,0.294168,0.278446,0.26264,0.246806,0.231,0.215279,0.199702,0.184324,0.169205,0.1544,0.139966,0.125958,0.11243,0.0994345,0.0870209,0.0752374,0.0641293,0.0537387,0.0441043,0.0352609,0.0272388,0.0200633,0.0137537,0.00832287,0.00377565,0.000107706,-0.00269644,-0.00466577,-0.005846,-0.00630359,-0.00613109,-0.00545314,-0.00443213,-0.00326797,-0.00217575,-0.00129558,-0.000415245
-0.00257955,-0.00139874,-0.000224193,0.000947795,0.00225764,0.00387465,0.00594699,0.00858688,0.0118709,0.0158457,0.0205336,0.0259389,0.0320518,0.0388526,0.0463138,0.0544027,0.0630829,0.0723155,0.0820601,0.0922758,0.102921,0.113955,0.125338,0.137029,0.14899,0.161184,0.173574,0.186124,0.198801,0.211572,0.224405,0.237268,0.250132,0.262969,0.27575,0.288448,0.301036,0.313488,0.32578,0.337886,0.349783,0.361445,0.372851,0.383975,0.394797,0.405292,0.415438,0.425214,0.434597,0.443567,0.4521,0.460177,0.467777,0.47488,0.481466,0.487515,0.493008,0.497929,0.50226,0.505983,0.509085,0.511549,0.513364,0.514517,0.514996,0.514794,0.513902,0.512315,0.510027,0.507037,0.503345,0.498951,0.49386,0.488078,0.481613,0.474476,0.46668,0.458241,0.449177,0.439509,0.429259,0.418453,0.407119,0.395289,0.382994,0.37027,0.357154,0.343687,0.329908,0.315862,0.301593,0.287148,0.272576,0.257924,0.243243,0.228584,0.213998,0.199536,0.185251,0.171192,0.157412,0.143961,0.130886,0.118237,0.106058,0.0943952,0.083289,0.072779,0.0629013,0.0536884,0.0451691,0.0373675,0.0303027,0.0239878,0.0184293,0.0136258,0.00956671,0.00623075,0.00358403,0.00157776,0.000145764,-0.000797872,-0.00136,-0.00166604,-0.00184846,-0.00201496,-0.00217746,-0.00212446
-0.00464396,-0.00171868,0.000949511,0.00347059,0.00598434,0.00863856,0.0115674,0.0148805,0.018661,0.022967,0.0278351,0.0332846,0.0393206,0.0459375,0.0531209,0.0608502,0.0690999,0.0778408,0.0870414,0.0966685,0.106688,0.117064,0.127763,0.138749,0.149988,0.161446,0.17309,0.184886,0.196804,0.208813,0.220882,0.232982,0.245085,0.257163,0.269189,0.281137,0.292981,0.304697,0.316259,0.327644,0.338828,0.349788,0.360502,0.370947,0.381101,0.390943,0.400451,0.409604,0.418382,0.426765,0.434731,0.442263,0.44934,0.455945,0.462059,0.467664,0.472743,0.477281,0.481262,0.484672,0.487496,0.489722,0.49134,0.492337,0.492707,0.49244,0.49153,0.489974,0.487768,0.484911,0.481404,0.477249,0.47245,0.467014,0.460949,0.454267,0.44698,0.439102,0.430652,0.421649,0.412113,0.40207,0.391544,0.380565,0.369162,0.357367,0.345215,0.332741,0.319983,0.30698,0.293773,0.280403,0.266914,0.25335,0.239756,0.226176,0.212657,0.199245,0.185985,0.172924,0.160106,0.147576,0.135376,0.12355,0.112137,0.101175,0.090701,0.0807483,0.0713472,0.0625248,0.0543042,0.046704,0.0397377,0.033413,0.027731,0.0226851,0.0182601,0.0144306,0.0111599,0.00839855,0.00608273,0.00413424,0.00246148,0.00096442,-0.000453793,-0.00186442,-0.00327832,-0.00461126
-0.00634003,-0.0017848,0.00226832,0.00599999,0.00957119,0.0131299,0.0168069,0.020712,0.0249328,0.0295353,0.0345668,0.0400579,0.0460256,0.0524759,0.0594056,0.0668043,0.0746562,0.082941,0.091635,0.100712,0.110145,0.119903,0.129958,0.140279,0.150835,0.161596,0.172532,0.183612,0.194809,0.206092,0.217433,0.228806,0.240182,0.251536,0.262841,0.274073,0.285206,0.296217,0.307082,0.317778,0.328281,0.338571,0.348625,0.358422,0.36794,0.377159,0.386059,0.39462,0.402823,0.410648,0.418077,0.425092,0.431675,0.437809,0.443477,0.448664,0.453354,0.457533,0.461187,0.464304,0.466871,0.468877,0.470313,0.47117,0.471441,0.47112,0.470201,0.468682,0.466561,0.463837,0.460512,0.45659,0.452075,0.446974,0.441295,0.43505,0.42825,0.42091,0.413046,0.404676,0.395822,0.386503,0.376746,0.366575,0.356017,0.345103,0.333864,0.322331,0.310538,0.298521,0.286317,0.273962,0.261496,0.248958,0.236387,0.223824,0.21131,0.198886,0.186592,0.174468,0.162554,0.150889,0.139511,0.128457,0.117761,0.107456,0.0975736,0.0881415,0.0791851,0.0707263,0.0627831,0.055369,0.0484928,0.0421574,0.0363595,0.0310882,0.0263248,0.0220412,0.0181991,0.0147493,0.011631,0.00877209,0.00609139,0.00350255,0.000922027,-0.00171963,-0.00446649,-0.00733872
-0.0072995,-0.00135337,0.00390665,0.00869043,0.0131736,0.0175084,0.0218263,0.0262384,0.030836,0.0356909,0.0408579,0.0463766,0.0522732,0.0585632,0.0652526,0.07234,0.0798179,0.0876737,0.0958907,0.10445,0.113328,0.122503,0.131948,0.141638,0.151546,0.161645,0.171907,0.182306,0.192814,0.203405,0.214053,0.22473,0.235412,0.246074,0.25669,0.267237,0.277691,0.288028,0.298227,0.308264,0.318118,0.327767,0.337191,0.346369,0.355281,0.363908,0.372229,0.380227,0.387883,0.39518,0.402099,0.408624,0.41474,0.420429,0.425678,0.430472,0.434797,0.43864,0.441989,0.444833,0.447162,0.448966,0.450238,0.450969,0.451154,0.450789,0.449869,0.448393,0.446361,0.443771,0.440628,0.436935,0.432697,0.427921,0.422615,0.416791,0.41046,0.403636,0.396334,0.388571,0.380366,0.371739,0.362713,0.353311,0.343558,0.33348,0.323106,0.312465,0.301587,0.290504,0.279248,0.267853,0.256353,0.244783,0.233179,0.221575,0.210009,0.198515,0.18713,0.175889,0.164826,0.153975,0.14337,0.13304,0.123018,0.11333,0.104002,0.0950577,0.0865178,0.0783993,0.0707157,0.063476,0.0566847,0.0503407,0.0444369,0.0389592,0.0338861,0.0291876,0.0248246,0.0207486,0.0169011,0.0132145,0.0096135,0.00601761,0.0023454,-0.00148178,-0.0055395,-0.00991079
-0.00731283,-0.000241495,0.00601945,0.0116834,0.0169299,0.0219127,0.0267638,0.0315954,0.0365011,0.041557,0.0468235,0.0523466,0.0581602,0.064287,0.0707409,0.0775279,0.0846474,0.0920937,0.0998566,0.107922,0.116274,0.124893,0.133758,0.142847,0.152137,0.161604,0.171224,0.180972,0.190823,0.200753,0.210737,0.22075,0.230768,0.240767,0.250724,0.260616,0.27042,0.280113,0.289674,0.299081,0.308314,0.317352,0.326175,0.334763,0.343097,0.351159,0.35893,0.366392,0.373529,0.380324,0.38676,0.392823,0.398497,0.403768,0.408622,0.413047,0.41703,0.420559,0.423625,0.426217,0.428327,0.429947,0.431069,0.431689,0.431802,0.431403,0.430492,0.429066,0.427126,0.424674,0.421712,0.418245,0.414279,0.40982,0.404877,0.399461,0.393582,0.387254,0.380492,0.373311,0.365728,0.357763,0.349435,0.340766,0.331778,0.322497,0.312946,0.303151,0.293141,0.282943,0.272586,0.2621,0.251514,0.24086,0.230169,0.219472,0.208801,0.198186,0.187658,0.177249,0.166988,0.156904,0.147026,0.137379,0.12799,0.118882,0.110076,0.10159,0.0934423,0.0856442,0.0782055,0.0711313,0.0644223,0.0580741,0.0520763,0.0464123,0.0410584,0.0359835,0.031148,0.0265039,0.0219948,0.0175558,0.0131146,0.00859299,0.0039077,-0.00102922,-0.00631392,-0.012061
-0.00626756,0.00167423,0.00872786,0.0150973,0.0209579,0.0264611,0.0317376,0.0368993,0.0420411,0.0472416,0.0525653,0.058063,0.0637741,0.0697275,0.0759431,0.0824331,0.0892031,0.096253,0.103578,0.11117,0.119016,0.127102,0.135412,0.143926,0.152625,0.161487,0.170492,0.179617,0.188839,0.198135,0.207483,0.216859,0.226241,0.235606,0.244932,0.254196,0.263377,0.272454,0.281405,0.290211,0.29885,0.307304,0.315552,0.323577,0.331361,0.338885,0.346132,0.353086,0.35973,0.366049,0.372029,0.377655,0.382912,0.387789,0.392273,0.396351,0.400015,0.403253,0.406056,0.408415,0.410325,0.411777,0.412767,0.41329,0.413343,0.412923,0.412029,0.41066,0.408819,0.406506,0.403727,0.400485,0.396786,0.392638,0.388048,0.383028,0.377588,0.37174,0.365497,0.358875,0.35189,0.344558,0.336899,0.328931,0.320674,0.312152,0.303384,0.294396,0.285211,0.275854,0.26635,0.256726,0.247008,0.237222,0.227396,0.217556,0.207731,0.197946,0.188229,0.178606,0.169102,0.159742,0.150549,0.141547,0.132755,0.124194,0.11588,0.107828,0.10005,0.0925554,0.0853496,0.0784345,0.0718074,0.0654609,0.0593822,0.0535526,0.0479469,0.0425328,0.0372707,0.0321135,0.0270059,0.021885,0.0166805,0.0113148,0.00570289,-0.000248777,-0.00664656,-0.0136169
-0.00410975,0.0044712,0.0121198,0.0190253,0.0253542,0.0312525,0.0368474,0.0422493,0.0475531,0.0528386,0.0581727,0.0636098,0.0691933,0.0749569,0.0809253,0.0871159,0.0935392,0.1002,0.107099,0.11423,0.121588,0.12916,0.136934,0.144895,0.153025,0.161307,0.169721,0.178248,0.186865,0.195554,0.204291,0.213056,0.221828,0.230585,0.239305,0.247967,0.256552,0.265038,0.273406,0.281635,0.289706,0.297602,0.305302,0.31279,0.320049,0.32706,0.333809,0.34028,0.346457,0.352327,0.357874,0.363087,0.367952,0.372459,0.376595,0.38035,0.383716,0.386683,0.389244,0.391391,0.393118,0.39442,0.395293,0.395734,0.395739,0.395308,0.394441,0.393138,0.3914,0.389232,0.386636,0.383618,0.380184,0.376341,0.372098,0.367464,0.36245,0.357066,0.351327,0.345245,0.338834,0.332112,0.325094,0.317797,0.310241,0.302443,0.294425,0.286205,0.277807,0.26925,0.260558,0.251754,0.242859,0.233897,0.224891,0.215865,0.206841,0.197843,0.188894,0.180014,0.171226,0.162551,0.154007,0.145614,0.137388,0.129344,0.121495,0.113854,0.106427,0.0992217,0.0922393,0.0854787,0.0789347,0.0725973,0.0664516,0.0604772,0.0546478,0.0489305,0.0432859,0.0376674,0.032021,0.0262855,0.0203921,0.014264,0.00781623,0.000953377,-0.00643337,-0.0144711
-0.000820751,0.00819383,0.0162556,0.0235375,0.0301953,0.0363673,0.0421761,0.0477292,0.0531201,0.058429,0.0637237,0.0690612,0.0744876,0.0800402,0.0857476,0.0916312,0.0977056,0.10398,0.110458,0.11714,0.124021,0.131094,0.138349,0.145775,0.153356,0.161077,0.168921,0.176871,0.184907,0.19301,0.201161,0.209339,0.217524,0.225696,0.233834,0.24192,0.249932,0.257852,0.26566,0.273338,0.280866,0.288228,0.295405,0.302381,0.309139,0.315663,0.321939,0.32795,0.333685,0.339128,0.344267,0.349091,0.353587,0.357746,0.361557,0.365011,0.3681,0.370817,0.373155,0.375108,0.37667,0.377839,0.37861,0.378982,0.378953,0.378523,0.377692,0.376462,0.374835,0.372815,0.370405,0.367612,0.364441,0.3609,0.356997,0.352741,0.348142,0.34321,0.337958,0.332398,0.326543,0.320408,0.314007,0.307356,0.300471,0.293369,0.286067,0.278583,0.270935,0.263143,0.255225,0.247201,0.23909,0.230912,0.222687,0.214434,0.206172,0.197921,0.189699,0.181526,0.173417,0.165391,0.157463,0.149647,0.141956,0.134404,0.126998,0.119747,0.112655,0.105727,0.09896,0.0923513,0.0858928,0.0795727,0.0733742,0.0672756,0.0612499,0.0552639,0.0492785,0.0432479,0.0371194,0.0308333,0.0243228,0.0175129,0.01032,0.00265024,-0.00560257,-0.0145601
0.00359664,0.0128636,0.0211738,0.0286845,0.0355397,0.0418699,0.0477917,0.0534088,0.0588124,0.064082,0.0692858,0.0744818,0.0797184,0.0850351,0.0904636,0.0960285,0.101748,0.107634,0.113694,0.119931,0.126344,0.132929,0.139678,0.146583,0.153631,0.160809,0.168102,0.175495,0.182969,0.190508,0.198093,0.205705,0.213325,0.220935,0.228514,0.236045,0.243508,0.250885,0.258157,0.265306,0.272315,0.279166,0.285843,0.29233,0.298611,0.304671,0.310497,0.316073,0.321387,0.326427,0.331181,0.335638,0.339788,0.343621,0.347128,0.350302,0.353136,0.355622,0.357756,0.359532,0.360947,0.361999,0.362684,0.363001,0.362951,0.362532,0.361748,0.360599,0.359089,0.357221,0.355001,0.352434,0.349526,0.346284,0.342716,0.338831,0.334638,0.330147,0.32537,0.320316,0.315,0.309432,0.303627,0.297598,0.291359,0.284925,0.27831,0.271532,0.264604,0.257543,0.250366,0.243088,0.235725,0.228295,0.220813,0.213296,0.20576,0.19822,0.190691,0.183189,0.175727,0.168318,0.160974,0.153708,0.146528,0.139442,0.132458,0.12558,0.11881,0.112149,0.105592,0.0991335,0.0927641,0.0864699,0.0802328,0.0740303,0.0678346,0.0616128,0.0553261,0.0489297,0.0423725,0.0355967,0.0285378,0.0211232,0.0132726,0.00489604,-0.00410731,-0.0138505
0.00912672,0.0184865,0.0268968,0.0345008,0.0414315,0.0478107,0.0537488,0.0593454,0.0646887,0.0698566,0.074917,0.0799281,0.0849396,0.0899928,0.0951214,0.100352,0.105706,0.111199,0.116839,0.122634,0.128584,0.134689,0.140942,0.147338,0.153867,0.160517,0.167275,0.174127,0.181057,0.18805,0.195088,0.202154,0.20923,0.216298,0.223339,0.230336,0.237271,0.244126,0.250884,0.257526,0.264037,0.2704,0.2766,0.28262,0.288447,0.294065,0.299463,0.304626,0.309543,0.314202,0.318592,0.322704,0.326529,0.330057,0.333281,0.336195,0.338791,0.341066,0.343014,0.344632,0.345917,0.346867,0.34748,0.347757,0.347697,0.347302,0.346573,0.345514,0.344128,0.342419,0.340392,0.338052,0.335407,0.332462,0.329226,0.325706,0.321912,0.317853,0.313539,0.308979,0.304185,0.299168,0.29394,0.288512,0.282897,0.277107,0.271155,0.265055,0.258818,0.25246,0.245992,0.239428,0.232783,0.226068,0.219297,0.212484,0.205641,0.198779,0.191912,0.18505,0.178204,0.171384,0.164598,0.157856,0.151163,0.144525,0.137945,0.131425,0.124964,0.118561,0.11221,0.105902,0.0996255,0.0933661,0.0871045,0.0808174,0.0744769,0.0680502,0.0614993,0.0547806,0.0478447,0.0406362,0.0330932,0.0251467,0.0167203,0.00772941,-0.00191946,-0.0123296
0.0157462,0.0250578,0.0334352,0.0410091,0.0479021,0.054228,0.0600909,0.0655858,0.0707976,0.0758022,0.0806665,0.0854485,0.0901982,0.0949581,0.0997634,0.104643,0.109619,0.114709,0.119926,0.125278,0.130767,0.136396,0.142161,0.148058,0.154078,0.160212,0.166448,0.172775,0.179177,0.185641,0.192149,0.198687,0.205236,0.211781,0.218304,0.224787,0.231214,0.237567,0.243831,0.249987,0.256021,0.261917,0.26766,0.273235,0.278628,0.283827,0.288817,0.293588,0.298129,0.302428,0.306476,0.310264,0.313783,0.317026,0.319988,0.32266,0.325039,0.327121,0.328901,0.330377,0.331548,0.332411,0.332967,0.333216,0.333159,0.332798,0.332136,0.331175,0.32992,0.328375,0.326545,0.324436,0.322054,0.319406,0.316499,0.313341,0.30994,0.306305,0.302444,0.298366,0.294082,0.289601,0.284933,0.280088,0.275077,0.269911,0.264599,0.259152,0.253582,0.2479,0.242115,0.236238,0.230281,0.224253,0.218165,0.212026,0.205846,0.199635,0.1934,0.187151,0.180895,0.174639,0.168388,0.162147,0.155921,0.149712,0.14352,0.137345,0.131185,0.125033,0.118884,0.112727,0.106548,0.100333,0.0940605,0.0877073,0.0812456,0.0746429,0.0678623,0.0608616,0.0535934,0.0460049,0.0380372,0.0296254,0.0206981,0.0111766,0.000975504,-0.00999842
0.0234276,0.0325658,0.0407908,0.0482222,0.0549733,0.0611504,0.0668518,0.0721674,0.0771791,0.0819602,0.0865761,0.0910843,0.0955347,0.0999701,0.104427,0.108935,0.113518,0.118196,0.122983,0.127887,0.132916,0.138072,0.143353,0.148757,0.154277,0.159905,0.165632,0.171446,0.177334,0.183283,0.189277,0.195303,0.201343,0.207382,0.213404,0.219391,0.225329,0.231199,0.236988,0.242678,0.248255,0.253703,0.259009,0.264159,0.269139,0.273937,0.278542,0.282941,0.287125,0.291084,0.29481,0.298293,0.301527,0.304505,0.307222,0.309672,0.311851,0.313757,0.315386,0.316737,0.317809,0.318601,0.319114,0.319348,0.319306,0.318991,0.318404,0.31755,0.316433,0.315058,0.31343,0.311555,0.309438,0.307087,0.304508,0.301708,0.298695,0.295477,0.292062,0.288457,0.284672,0.280714,0.276592,0.272315,0.267891,0.263329,0.258638,0.253825,0.2489,0.24387,0.238744,0.23353,0.228236,0.22287,0.217438,0.211948,0.206407,0.20082,0.195194,0.189534,0.183844,0.178129,0.172392,0.166634,0.160857,0.155061,0.149244,0.143404,0.137534,0.131629,0.12568,0.119675,0.1136,0.107437,0.101167,0.0947649,0.0882039,0.0814521,0.0744735,0.0672278,0.0596697,0.0517491,0.0434107,0.0345939,0.0252325,0.0152545,0.00458231,-0.00686725
0.0321414,0.0409947,0.0489594,0.0561457,0.062659,0.0685986,0.074057,0.0791198,0.0838654,0.0883645,0.0926808,0.0968707,0.100984,0.105063,0.109144,0.11326,0.117433,0.121686,0.126033,0.130486,0.135052,0.139735,0.144535,0.149451,0.154477,0.159608,0.164835,0.170147,0.175533,0.18098,0.186475,0.192003,0.197549,0.203098,0.208635,0.214144,0.219609,0.225015,0.230347,0.235589,0.240727,0.245746,0.250635,0.255378,0.259964,0.264381,0.268618,0.272665,0.276512,0.28015,0.283572,0.286769,0.289737,0.292468,0.294958,0.297203,0.299201,0.300948,0.302442,0.303683,0.304671,0.305406,0.305889,0.306121,0.306106,0.305846,0.305345,0.304607,0.303636,0.302437,0.301016,0.299377,0.297528,0.295475,0.293223,0.29078,0.288152,0.285347,0.282371,0.279232,0.275936,0.272491,0.268903,0.26518,0.261329,0.257356,0.253268,0.24907,0.244771,0.240375,0.235888,0.231315,0.226663,0.221936,0.217139,0.212276,0.20735,0.202366,0.197327,0.192235,0.187092,0.181899,0.176657,0.171366,0.166023,0.160627,0.155173,0.149658,0.144073,0.138411,0.13266,0.126809,0.120841,0.11474,0.108484,0.10205,0.09541,0.0885336,0.081386,0.0739287,0.0661188,0.0579092,0.0492483,0.0400799,0.0303432,0.0199728,0.008899,-0.00295205
0.0418575,0.0503256,0.0579324,0.0647802,0.0709672,0.0765865,0.0817257,0.086466,0.0908823,0.095043,0.0990096,0.102837,0.106575,0.110265,0.113944,0.117644,0.12139,0.125204,0.129101,0.133095,0.137193,0.141401,0.145721,0.150152,0.15469,0.15933,0.164065,0.168884,0.173778,0.178736,0.183743,0.188787,0.193853,0.198927,0.203995,0.20904,0.214049,0.219007,0.223898,0.228709,0.233426,0.238035,0.242523,0.246878,0.251088,0.255142,0.25903,0.262743,0.266271,0.269606,0.272742,0.275672,0.27839,0.280891,0.283172,0.28523,0.287061,0.288665,0.29004,0.291187,0.292105,0.292796,0.293262,0.293505,0.293528,0.293335,0.292929,0.292314,0.291497,0.29048,0.289271,0.287874,0.286295,0.284541,0.282617,0.28053,0.278285,0.275888,0.273347,0.270667,0.267853,0.264912,0.261849,0.25867,0.255379,0.251982,0.248483,0.244886,0.241196,0.237417,0.233551,0.229602,0.225574,0.221467,0.217286,0.21303,0.208702,0.204302,0.199832,0.19529,0.190676,0.185989,0.181227,0.176388,0.171466,0.166459,0.16136,0.156162,0.150856,0.145433,0.139881,0.134186,0.128332,0.1223,0.11607,0.109618,0.102918,0.0959387,0.088648,0.0810089,0.0729812,0.0645206,0.0555794,0.0461059,0.0360445,0.0253364,0.0139192,0.00172793
0.052546,0.0605384,0.0676985,0.074122,0.0799009,0.0851231,0.0898714,0.0942232,0.0982502,0.102018,0.105586,0.109009,0.112333,0.115602,0.118851,0.122112,0.125411,0.12877,0.132205,0.135731,0.139356,0.143087,0.146926,0.150873,0.154926,0.15908,0.163329,0.167664,0.172075,0.176553,0.181083,0.185655,0.190254,0.194867,0.199479,0.204076,0.208644,0.213168,0.217635,0.222031,0.226342,0.230557,0.234661,0.238645,0.242496,0.246204,0.249761,0.253156,0.256382,0.259432,0.262299,0.264978,0.267463,0.269752,0.27184,0.273725,0.275406,0.276883,0.278153,0.279219,0.280082,0.280742,0.281204,0.281469,0.281541,0.281424,0.281122,0.28064,0.279983,0.279156,0.278164,0.277013,0.275708,0.274256,0.272661,0.270929,0.269065,0.267076,0.264966,0.26274,0.260403,0.25796,0.255414,0.252769,0.250029,0.247196,0.244275,0.241267,0.238173,0.234997,0.231738,0.228398,0.224978,0.221477,0.217895,0.214231,0.210485,0.206654,0.202736,0.19873,0.194631,0.190437,0.186142,0.181743,0.177233,0.172606,0.167853,0.162967,0.157937,0.152751,0.147398,0.141861,0.136125,0.130171,0.123977,0.117521,0.110777,0.103715,0.0963037,0.0885091,0.0802931,0.0716145,0.0624294,0.0526903,0.0423471,0.0313468,0.0196341,0.00715209
0.064178,0.0716122,0.0782444,0.0841646,0.0894598,0.0942132,0.0985034,0.102404,0.105985,0.109307,0.11243,0.115405,0.118279,0.121094,0.123884,0.126683,0.129515,0.132403,0.135364,0.138412,0.141557,0.144805,0.148161,0.151624,0.155194,0.158866,0.162634,0.166491,0.170428,0.174434,0.178498,0.182608,0.186751,0.190914,0.195084,0.199245,0.203386,0.207492,0.211549,0.215545,0.219466,0.223301,0.227038,0.230666,0.234174,0.237553,0.240794,0.243888,0.246829,0.249609,0.252223,0.254667,0.256936,0.259027,0.260937,0.262666,0.264211,0.265574,0.266754,0.267753,0.268572,0.269215,0.269683,0.269982,0.270113,0.270083,0.269894,0.269553,0.269064,0.268433,0.267664,0.266763,0.265736,0.264588,0.263323,0.261948,0.260466,0.258883,0.257202,0.255428,0.253564,0.251612,0.249577,0.24746,0.245263,0.242988,0.240635,0.238205,0.235698,0.233114,0.230451,0.227708,0.224884,0.221975,0.218981,0.215896,0.212718,0.209444,0.206067,0.202584,0.19899,0.195277,0.19144,0.187472,0.183365,0.179111,0.174699,0.170121,0.165363,0.160414,0.15526,0.149885,0.144272,0.138402,0.132255,0.125807,0.119033,0.111905,0.104394,0.0964664,0.0880874,0.0792189,0.0698203,0.0598488,0.0492589,0.0380035,0.0260337,0.0132998
0.0767258,0.0835262,0.0895556,0.0948996,0.0996408,0.103858,0.107627,0.111018,0.114097,0.116925,0.119556,0.122043,0.124431,0.126759,0.129063,0.131375,0.133719,0.136119,0.138592,0.141151,0.143808,0.146569,0.149438,0.152416,0.155503,0.158695,0.161986,0.16537,0.168839,0.172381,0.175988,0.179646,0.183343,0.187068,0.190806,0.194545,0.198271,0.201971,0.205632,0.209242,0.212788,0.216258,0.219642,0.222929,0.22611,0.229174,0.232114,0.234922,0.237592,0.240118,0.242495,0.244718,0.246785,0.248693,0.25044,0.252026,0.253449,0.254712,0.255814,0.256759,0.257547,0.258184,0.258671,0.259013,0.259214,0.259279,0.259212,0.25902,0.258706,0.258277,0.257737,0.257092,0.256346,0.255506,0.254574,0.253557,0.252458,0.25128,0.250028,0.248704,0.247309,0.245848,0.244319,0.242726,0.241067,0.239342,0.237551,0.235693,0.233764,0.231763,0.229688,0.227533,0.225296,0.222971,0.220554,0.218039,0.215421,0.212693,0.209849,0.20688,0.203781,0.200542,0.197156,0.193612,0.189903,0.186016,0.181941,0.177667,0.173181,0.168469,0.163515,0.158305,0.15282,0.147042,0.140949,0.134519,0.127729,0.12055,0.112956,0.104915,0.0963942,0.087359,0.0777722,0.067595,0.0567867,0.0453053,0.033108,0.0201516
0.0901631,0.09626,0.101617,0.106317,0.110439,0.114058,0.117246,0.120071,0.122596,0.124881,0.126978,0.128936,0.130801,0.132611,0.134401,0.136202,0.138038,0.139933,0.141902,0.143961,0.146121,0.148387,0.150765,0.153256,0.15586,0.158573,0.161391,0.164306,0.167311,0.170397,0.173553,0.176768,0.180029,0.183325,0.186643,0.18997,0.193293,0.1966,0.199877,0.203114,0.206297,0.209417,0.212461,0.215421,0.218288,0.221051,0.223705,0.226241,0.228655,0.230941,0.233094,0.235111,0.23699,0.238728,0.240325,0.24178,0.243095,0.24427,0.245307,0.246208,0.246978,0.247618,0.248134,0.24853,0.24881,0.248979,0.249043,0.249007,0.248876,0.248655,0.248349,0.247964,0.247505,0.246976,0.246381,0.245724,0.245009,0.244238,0.243415,0.24254,0.241615,0.240641,0.239617,0.238544,0.23742,0.236242,0.235009,0.233717,0.232362,0.23094,0.229446,0.227873,0.226216,0.224469,0.222623,0.220672,0.218607,0.216419,0.2141,0.211641,0.209031,0.206261,0.20332,0.200197,0.196881,0.193359,0.18962,0.185649,0.181434,0.176959,0.172209,0.167167,0.161815,0.156134,0.150103,0.143702,0.136905,0.129689,0.122026,0.113886,0.105241,0.0960584,0.0863034,0.0759416,0.0649365,0.0532512,0.0408481,0.0276898
0.104465,0.109794,0.114415,0.118407,0.121848,0.124809,0.12736,0.129566,0.131488,0.133183,0.134703,0.136095,0.137402,0.138663,0.139911,0.141176,0.142484,0.143854,0.145306,0.146853,0.148505,0.150269,0.152151,0.154152,0.156271,0.158506,0.160851,0.163301,0.165848,0.168482,0.171194,0.173973,0.176806,0.179683,0.18259,0.185516,0.188447,0.191371,0.194277,0.197152,0.199985,0.202766,0.205484,0.20813,0.210695,0.213171,0.215551,0.217829,0.219999,0.222058,0.224,0.225824,0.227527,0.229108,0.230567,0.231905,0.233122,0.234221,0.235203,0.236073,0.236833,0.237488,0.238043,0.238501,0.238869,0.239151,0.239352,0.239479,0.239537,0.239531,0.239465,0.239346,0.239178,0.238964,0.238708,0.238415,0.238086,0.237724,0.23733,0.236906,0.236451,0.235964,0.235445,0.234892,0.234301,0.233669,0.232992,0.232264,0.23148,0.230634,0.229718,0.228725,0.227646,0.226472,0.225194,0.223803,0.222287,0.220637,0.21884,0.216887,0.214764,0.21246,0.209962,0.207257,0.204333,0.201176,0.197771,0.194105,0.190162,0.185926,0.181382,0.176512,0.171297,0.16572,0.159759,0.153394,0.146601,0.139357,0.131636,0.123412,0.114656,0.105339,0.0954315,0.0849007,0.0737146,0.0618407,0.0492463,0.0358995
0.119609,0.124108,0.127932,0.131158,0.133859,0.136107,0.137967,0.139504,0.140776,0.141837,0.142739,0.143527,0.144243,0.144924,0.145603,0.146308,0.147066,0.147895,0.148813,0.149835,0.150969,0.152224,0.153603,0.15511,0.156742,0.158497,0.160372,0.162359,0.16445,0.166638,0.168912,0.171261,0.173674,0.176139,0.178644,0.181177,0.183726,0.186278,0.188823,0.191347,0.193842,0.196295,0.198698,0.201042,0.203317,0.205518,0.207637,0.209668,0.211607,0.21345,0.215193,0.216835,0.218374,0.21981,0.221142,0.222373,0.223503,0.224536,0.225475,0.226322,0.227083,0.227761,0.228363,0.228892,0.229355,0.229757,0.230104,0.230401,0.230654,0.230868,0.231049,0.2312,0.231326,0.231432,0.23152,0.231593,0.231654,0.231703,0.231742,0.23177,0.231786,0.231789,0.231776,0.231743,0.231686,0.2316,0.231479,0.231316,0.231103,0.230833,0.230495,0.230081,0.229579,0.228979,0.228269,0.227437,0.226471,0.225357,0.224083,0.222635,0.220999,0.219161,0.217107,0.214821,0.21229,0.209498,0.20643,0.20307,0.199401,0.195408,0.191074,0.18638,0.181308,0.17584,0.169955,0.163632,0.156851,0.149588,0.141819,0.133519,0.124663,0.115224,0.105174,0.0944847,0.083128,0.071075,0.0582976,0.0447685
0.135573,0.139186,0.142156,0.144558,0.146466,0.147947,0.149066,0.149885,0.150461,0.150846,0.151091,0.151239,0.15133,0.151401,0.151484,0.151606,0.151792,0.152062,0.152431,0.152914,0.15352,0.154257,0.155127,0.156134,0.157277,0.158552,0.159955,0.16148,0.163119,0.164864,0.166704,0.168629,0.170628,0.172689,0.1748,0.176949,0.179125,0.181314,0.183507,0.185691,0.187857,0.189993,0.192092,0.194144,0.196141,0.198077,0.199945,0.201741,0.20346,0.205098,0.206653,0.208123,0.209509,0.210809,0.212025,0.213158,0.214212,0.215188,0.216091,0.216925,0.217695,0.218405,0.219061,0.219669,0.220235,0.220763,0.221262,0.221735,0.222189,0.222629,0.223059,0.223486,0.223912,0.224341,0.224777,0.225221,0.225675,0.226139,0.226613,0.227096,0.227587,0.228081,0.228576,0.229067,0.229547,0.230009,0.230447,0.230851,0.231212,0.23152,0.231763,0.23193,0.232009,0.231985,0.231845,0.231576,0.231162,0.230588,0.229839,0.2289,0.227753,0.226385,0.224777,0.222914,0.22078,0.218357,0.215628,0.212578,0.209188,0.205442,0.201322,0.196809,0.191885,0.186531,0.180727,0.174455,0.167691,0.160415,0.152605,0.144237,0.135288,0.125734,0.115548,0.104707,0.0931849,0.0809571,0.0679992,0.0542883
0.152337,0.155009,0.157071,0.158597,0.159659,0.160323,0.160652,0.160708,0.160544,0.160213,0.159762,0.159234,0.158669,0.158101,0.157561,0.157077,0.15667,0.156361,0.156166,0.156097,0.156164,0.156373,0.156728,0.15723,0.157879,0.158672,0.159603,0.160667,0.161856,0.16316,0.164571,0.166077,0.167667,0.16933,0.171054,0.172826,0.174636,0.176472,0.178321,0.180174,0.18202,0.18385,0.185653,0.187423,0.189152,0.190833,0.192461,0.19403,0.195538,0.196981,0.198357,0.199666,0.200907,0.202081,0.203189,0.204234,0.205218,0.206146,0.207022,0.20785,0.208635,0.209384,0.210102,0.210795,0.211469,0.21213,0.212785,0.21344,0.2141,0.214771,0.215457,0.216163,0.216893,0.21765,0.218438,0.219256,0.220107,0.220989,0.221903,0.222846,0.223815,0.224805,0.225813,0.226831,0.227852,0.228868,0.229869,0.230845,0.231785,0.232676,0.233506,0.23426,0.234924,0.235482,0.235919,0.236217,0.236361,0.236333,0.236116,0.235691,0.235041,0.234147,0.232992,0.231558,0.229825,0.227777,0.225395,0.22266,0.219555,0.216061,0.21216,0.207834,0.203063,0.197829,0.192113,0.185895,0.179155,0.171872,0.164026,0.155594,0.146557,0.13689,0.126573,0.115582,0.103896,0.0914924,0.0783516,0.0644539
0.169883,0.171562,0.172664,0.173264,0.17343,0.173228,0.172722,0.171969,0.171024,0.169937,0.168754,0.167517,0.166263,0.165027,0.163839,0.162724,0.161705,0.1608,0.160024,0.159389,0.158905,0.158577,0.158408,0.1584,0.158552,0.158859,0.159317,0.15992,0.160659,0.161526,0.16251,0.163601,0.164788,0.166058,0.1674,0.168803,0.170255,0.171743,0.173257,0.174787,0.176322,0.177852,0.17937,0.180866,0.182335,0.18377,0.185166,0.186518,0.187823,0.18908,0.190286,0.191441,0.192545,0.1936,0.194608,0.195571,0.196494,0.19738,0.198235,0.199063,0.199871,0.200664,0.201448,0.202231,0.203019,0.203818,0.204635,0.205475,0.206346,0.207251,0.208196,0.209187,0.210225,0.211314,0.212457,0.213654,0.214906,0.216211,0.217569,0.218976,0.220429,0.221921,0.223446,0.224998,0.226566,0.228141,0.229713,0.231269,0.232795,0.234277,0.235701,0.237051,0.238308,0.239457,0.240479,0.241355,0.242067,0.242594,0.242917,0.243016,0.24287,0.242461,0.241768,0.240771,0.239449,0.237784,0.235755,0.233344,0.230531,0.227297,0.223622,0.219489,0.214877,0.209769,0.204146,0.197987,0.191275,0.183989,0.17611,0.167618,0.158494,0.148717,0.138267,0.127126,0.115272,0.102689,0.0893585,0.0752645