-0,-0,-0,-0,-0,-0,-0,-0,-0,-0,-0,-0,-0,-0,-0,-0,-0,-0,-0,-0,-0,-0,-0,-0,-0,-0,-0,-0,-0,-0,-0,-0,-0,-0,-0,-0,-0,-0,-0,-0,-0,-0,-0,-0,-0,-0,-0,-0,-0,-0,-0,-0,-0,-0,-0,-0,-0,-0,-0,-0,-0,-0,-0,-0,-0,-0,-0,-0,-0,-0,-0,-0,-0,-0,-0,-0,-0,-0,-0,-0,-0,-0,-0,-0,-0,-0,-0,-0,-0,-0,-0,-0,-0,-0,-0,-0,-0,-0,-0,-0,-0,-0,-0,-0,-0,-0,-0,-0,-0,-0,-0,-0,-0,-0,-0,-0,-0,-0,-0,-0,-0,-0,-0,-0,-0,-0,-0,-0
-0,2.42496e-08,8.49622e-08,1.54798e-07,2.13571e-07,2.48872e-07,2.53659e-07,2.24284e-07,1.59221e-07,5.82867e-08,-7.78458e-08,-2.47949e-07,-4.50444e-07,-6.83529e-07,-9.45279e-07,-1.2337e-06,-1.54679e-06,-1.88255e-06,-2.23901e-06,-2.61428e-06,-3.00651e-06,-3.41392e-06,-3.83481e-06,-4.26756e-06,-4.7106e-06,-5.16247e-06,-5.62174e-06,-6.08709e-06,-6.55721e-06,-7.03091e-06,-7.507e-06,-7.98436e-06,-8.46193e-06,-8.93868e-06,-9.41359e-06,-9.8857e-06,-1.03541e-05,-1.08178e-05,-1.12759e-05,-1.17276e-05,-1.2172e-05,-1.26081e-05,-1.30352e-05,-1.34524e-05,-1.38588e-05,-1.42535e-05,-1.46358e-05,-1.50047e-05,-1.53594e-05,-1.56991e-05,-1.60229e-05,-1.63299e-05,-1.66194e-05,-1.68904e-05,-1.71422e-05,-1.73739e-05,-1.75848e-05,-1.77741e-05,-1.7941e-05,-1.80849e-05,-1.8205e-05,-1.83007e-05,-1.83714e-05,-1.84165e-05,-1.84356e-05,-1.84282e-05,-1.8394e-05,-1.83325e-05,-1.82437e-05,-1.81273e-05,-1.79833e-05,-1.78117e-05,-1.76126e-05,-1.73862e-05,-1.71329e-05,-1.6853e-05,-1.65471e-05,-1.62159e-05,-1.586e-05,-1.54803e-05,-1.50777e-05,-1.46535e-05,-1.42086e-05,-1.37444e-05,-1.32623e-05,-1.27638e-05,-1.22505e-05,-1.1724e-05,-1.11861e-05,-1.06386e-05,-1.00835e-05,-9.52269e-06,-8.95822e-06,-8.39216e-06,-7.82663e-06,-7.26374e-06,-6.70566e-06,-6.15455e-06,-5.61255e-06,-5.08181e-06,-4.56443e-06,-4.06248e-06,-3.57799e-06,-3.11292e-06,-2.66917e-06,-2.24853e-06,-1.85272e-06,-1.48335e-06,-1.14191e-06,-8.29743e-07,-5.48058e-07,-2.97895e-07,-8.01107e-08,1.04647e-07,2.55967e-07,3.73714e-07,4.58078e-07,5.09637e-07,5.29454e-07,5.19201e-07,4.81343e-07,4.19408e-07,3.38384e-07,2.45303e-07,1.50058e-07,6.63134e-08,1.13816e-08,-0
-0,8.5014e-08,2.58238e-07,4.43328e-07,5.83262e-07,6.397e-07,5.88644e-07,4.16269e-07,1.15756e-07,-3.14914e-07,-8.74486e-07,-1.55947e-06,-2.36487e-06,-3.2847e-06,-4.31232e-06,-5.44072e-06,-6.66274e-06,-7.97112e-06,-9.35869e-06,-1.08184e-05,-1.23434e-05,-1.3927e-05,-1.55627e-05,-1.72445e-05,-1.89664e-05,-2.07226e-05,-2.25078e-05,-2.43168e-05,-2.61446e-05,-2.79865e-05,-2.98379e-05,-3.16944e-05,-3.35518e-05,-3.54061e-05,-3.72533e-05,-3.90895e-05,-4.09112e-05,-4.27146e-05,-4.44962e-05,-4.62524e-05,-4.79798e-05,-4.96751e-05,-5.13347e-05,-5.29554e-05,-5.45337e-05,-5.60663e-05,-5.755e-05,-5.89812e-05,-6.03568e-05,-6.16735e-05,-6.29278e-05,-6.41167e-05,-6.52367e-05,-6.62848e-05,-6.72577e-05,-6.81524e-05,-6.89658e-05,-6.96951e-05,-7.03372e-05,-7.08897e-05,-7.13498e-05,-7.17151e-05,-7.19834e-05,-7.21525e-05,-7.22208e-05,-7.21864e-05,-7.20481e-05,-7.18048e-05,-7.14555e-05,-7.09999e-05,-7.04377e-05,-6.9769e-05,-6.89944e-05,-6.81148e-05,-6.71314e-05,-6.60459e-05,-6.48603e-05,-6.35771e-05,-6.21992e-05,-6.07299e-05,-5.91729e-05,-5.75324e-05,-5.58129e-05,-5.40193e-05,-5.2157e-05,-5.02317e-05,-4.82495e-05,-4.62167e-05,-4.41401e-05,-4.20268e-05,-3.9884e-05,-3.77192e-05,-3.55402e-05,-3.33549e-05,-3.11713e-05,-2.89975e-05,-2.68417e-05,-2.47122e-05,-2.26171e-05,-2.05645e-05,-1.85625e-05,-1.66189e-05,-1.47415e-05,-1.29375e-05,-1.12143e-05,-9.57851e-06,-8.03672e-06,-6.59491e-06,-5.25864e-06,-4.03293e-06,-2.92222e-06,-1.93028e-06,-1.06016e-06,-3.14066e-07,3.0674e-07,8.02092e-07,1.1731e-06,1.42242e-06,1.55452e-06,1.5762e-06,1.49712e-06,1.33063e-06,1.09486e-06,8.14111e-07,5.20473e-07,2.54982e-07,6.61956e-08,-0
-0,1.55119e-07,4.43951e-07,7.28227e-07,9.06058e-07,9.06571e-07,6.83229e-07,2.07686e-07,-5.35148e-07,-1.55083e-06,-2.83813e-06,-4.39099e-06,-6.19997e-06,-8.25332e-06,-1.05377e-05,-1.30389e-05,-1.57421e-05,-1.86321e-05,-2.16939e-05,-2.49125e-05,-2.82734e-05,-3.17623e-05,-3.53653e-05,-3.90692e-05,-4.28611e-05,-4.67287e-05,-5.066e-05,-5.46439e-05,-5.86694e-05,-6.27259e-05,-6.68036e-05,-7.08927e-05,-7.49839e-05,-7.90681e-05,-8.31368e-05,-8.71813e-05,-9.11934e-05,-9.51651e-05,-9.90883e-05,-0.000102955,-0.000106759,-0.00011049,-0.000114143,-0.00011771,-0.000121182,-0.000124553,-0.000127815,-0.000130962,-0.000133985,-0.000136877,-0.000139632,-0.000142242,-0.000144699,-0.000146998,-0.000149131,-0.00015109,-0.000152871,-0.000154466,-0.000155869,-0.000157074,-0.000158077,-0.00015887,-0.000159451,-0.000159813,-0.000159954,-0.00015987,-0.000159558,-0.000159015,-0.00015824,-0.000157232,-0.000155991,-0.000154517,-0.000152811,-0.000150876,-0.000148713,-0.000146328,-0.000143723,-0.000140906,-0.000137882,-0.000134659,-0.000131244,-0.000127647,-0.000123877,-0.000119946,-0.000115865,-0.000111647,-0.000107304,-0.000102851,-9.83029e-05,-9.3674e-05,-8.89805e-05,-8.42389e-05,-7.94658e-05,-7.46783e-05,-6.9894e-05,-6.51304e-05,-6.04053e-05,-5.57365e-05,-5.11417e-05,-4.66384e-05,-4.2244e-05,-3.79755e-05,-3.38495e-05,-2.9882e-05,-2.60884e-05,-2.24835e-05,-1.9081e-05,-1.5894e-05,-1.29343e-05,-1.02125e-05,-7.73801e-06,-5.51879e-06,-3.56108e-06,-1.8693e-06,-4.45746e-07,7.09677e-07,1.59988e-06,2.23108e-06,2.61344e-06,2.7619e-06,2.69729e-06,2.4477e-06,2.05024e-06,1.55312e-06,1.01779e-06,5.2028e-07,1.49697e-07,-0
-0,2.14513e-07,5.85359e-07,9.07976e-07,1.03235e-06,8.52321e-07,2.96252e-07,-6.81016e-07,-2.10466e-06,-3.98496e-06,-6.32125e-06,-9.10483e-06,-1.23212e-05,-1.59519e-05,-1.99754e-05,-2.43684e-05,-2.91066e-05,-3.41649e-05,-3.95182e-05,-4.51413e-05,-5.10095e-05,-5.70987e-05,-6.33854e-05,-6.98468e-05,-7.64608e-05,-8.32062e-05,-9.00626e-05,-9.70104e-05,-0.000104031,-0.000111105,-0.000118216,-0.000125348,-0.000132482,-0.000139605,-0.0001467,-0.000153753,-0.000160749,-0.000167674,-0.000174514,-0.000181256,-0.000187885,-0.000194389,-0.000200755,-0.000206968,-0.000213017,-0.000218889,-0.000224569,-0.000230047,-0.000235308,-0.00024034,-0.000245131,-0.000249669,-0.00025394,-0.000257933,-0.000261636,-0.000265038,-0.000268126,-0.000270891,-0.00027332,-0.000275405,-0.000277136,-0.000278504,-0.000279501,-0.000280118,-0.00028035,-0.000280191,-0.000279635,-0.00027868,-0.000277321,-0.000275558,-0.00027339,-0.000270818,-0.000267845,-0.000264474,-0.000260709,-0.000256558,-0.000252029,-0.000247131,-0.000241875,-0.000236274,-0.000230342,-0.000224094,-0.000217549,-0.000210724,-0.00020364,-0.000196319,-0.000188782,-0.000181054,-0.000173161,-0.000165128,-0.000156983,-0.000148754,-0.00014047,-0.00013216,-0.000123855,-0.000115584,-0.000107377,-9.92669e-05,-9.12824e-05,-8.3454e-05,-7.58114e-05,-6.83839e-05,-6.11999e-05,-5.42867e-05,-4.76708e-05,-4.13773e-05,-3.54298e-05,-2.98503e-05,-2.4659e-05,-1.98738e-05,-1.55107e-05,-1.15828e-05,-8.10035e-06,-5.07056e-06,-2.49681e-06,-3.78383e-07,1.29027e-06,2.52029e-06,3.32941e-06,3.74322e-06,3.79671e-06,3.53623e-06,3.02182e-06,2.32979e-06,1.5554e-06,8.14763e-07,2.44848e-07,-0
-0,2.5079e-07,6.43958e-07,9.11107e-07,8.5467e-07,3.3316e-07,-7.50633e-07,-2.45934e-06,-4.82887e-06,-7.87476e-06,-1.15971e-05,-1.59844e-05,-2.10168e-05,-2.6668e-05,-3.29074e-05,-3.97014e-05,-4.70145e-05,-5.48099e-05,-6.30507e-05,-7.16995e-05,-8.07197e-05,-9.00753e-05,-9.97308e-05,-0.000109652,-0.000119806,-0.00013016,-0.000140683,-0.000151346,-0.00016212,-0.000172976,-0.000183889,-0.000194832,-0.00020578,-0.00021671,-0.000227597,-0.000238418,-0.000249151,-0.000259775,-0.000270268,-0.000280609,-0.000290776,-0.00030075,-0.00031051,-0.000320036,-0.000329308,-0.000338306,-0.000347009,-0.0003554,-0.000363457,-0.000371162,-0.000378496,-0.000385439,-0.000391972,-0.000398078,-0.000403738,-0.000408935,-0.00041365,-0.000417868,-0.000421573,-0.00042475,-0.000427383,-0.00042946,-0.000430968,-0.000431896,-0.000432234,-0.000431974,-0.000431107,-0.000429629,-0.000427535,-0.000424824,-0.000421494,-0.000417548,-0.00041299,-0.000407824,-0.000402058,-0.000395704,-0.000388773,-0.00038128,-0.000373241,-0.000364677,-0.000355609,-0.00034606,-0.000336057,-0.000325629,-0.000314806,-0.000303621,-0.000292108,-0.000280303,-0.000268246,-0.000255976,-0.000243534,-0.000230963,-0.000218306,-0.000205609,-0.000192916,-0.000180274,-0.000167728,-0.000155324,-0.00014311,-0.000131129,-0.000119428,-0.00010805,-9.70384e-05,-8.6434e-05,-7.62769e-05,-6.66049e-05,-5.74534e-05,-4.88555e-05,-4.08414e-05,-3.3438e-05,-2.66687e-05,-2.05531e-05,-1.51062e-05,-1.03383e-05,-6.25381e-06,-2.85121e-06,-1.21586e-07,1.95223e-06,3.39702e-06,4.25083e-06,4.56501e-06,4.40655e-06,3.86095e-06,3.03531e-06,2.06156e-06,1.09942e-06,3.38543e-07,-0
-0,2.5675e-07,5.95019e-07,6.89317e-07,2.98094e-07,-7.53413e-07,-2.58679e-06,-5.28149e-06,-8.88386e-06,-1.34145e-05,-1.88739e-05,-2.52477e-05,-3.25097e-05,-4.06255e-05,-4.95543e-05,-5.92511e-05,-6.96679e-05,-8.07551e-05,-9.24619e-05,-0.000104738,-0.000117532,-0.000130794,-0.000144477,-0.000158532,-0.000172913,-0.000187575,-0.000202475,-0.000217571,-0.000232822,-0.00024819,-0.000263636,-0.000279125,-0.00029462,-0.000310088,-0.000325495,-0.000340808,-0.000355997,-0.000371029,-0.000385874,-0.000400503,-0.000414885,-0.000428992,-0.000442794,-0.000456264,-0.000469372,-0.00048209,-0.000494391,-0.000506246,-0.000517629,-0.000528511,-0.000538866,-0.000548666,-0.000557886,-0.000566499,-0.000574481,-0.000581806,-0.00058845,-0.00059439,-0.000599603,-0.000604069,-0.000607768,-0.00061068,-0.000612788,-0.000614078,-0.000614535,-0.000614147,-0.000612904,-0.000610799,-0.000607826,-0.000603984,-0.00059927,-0.000593688,-0.000587244,-0.000579945,-0.000571803,-0.000562832,-0.000553049,-0.000542476,-0.000531137,-0.000519059,-0.000506271,-0.000492809,-0.000478708,-0.000464009,-0.000448754,-0.00043299,-0.000416764,-0.000400129,-0.000383137,-0.000365844,-0.000348308,-0.000330589,-0.000312748,-0.000294846,-0.000276948,-0.000259118,-0.000241419,-0.000223917,-0.000206675,-0.000189757,-0.000173225,-0.000157142,-0.000141567,-0.000126557,-0.000112168,-9.84522e-05,-8.54592e-05,-7.32346e-05,-6.18201e-05,-5.12531e-05,-4.15657e-05,-3.27846e-05,-2.49304e-05,-1.80166e-05,-1.20492e-05,-7.02519e-06,-2.93197e-06,2.54413e-07,2.57085e-06,4.06914e-06,4.81836e-06,4.90772e-06,4.44973e-06,3.58388e-06,2.4805e-06,1.34489e-06,4.21666e-07,-0
-0,2.28413e-07,4.23383e-07,2.11264e-07,-6.87856e-07,-2.47833e-06,-5.30361e-06,-9.25827e-06,-1.43979e-05,-2.07472e-05,-2.83067e-05,-3.70581e-05,-4.69686e-05,-5.79945e-05,-7.00843e-05,-8.31803e-05,-9.72212e-05,-0.000112143,-0.00012788,-0.000144367,-0.000161537,-0.000179327,-0.000197671,-0.000216509,-0.000235777,-0.000255419,-0.000275376,-0.000295592,-0.000316015,-0.000336592,-0.000357272,-0.000378008,-0.000398751,-0.000419457,-0.000440079,-0.000460576,-0.000480903,-0.00050102,-0.000520885,-0.000540458,-0.0005597,-0.000578572,-0.000597033,-0.000615047,-0.000632576,-0.00064958,-0.000666024,-0.000681869,-0.000697079,-0.000711617,-0.000725448,-0.000738535,-0.000750843,-0.000762339,-0.000772988,-0.000782757,-0.000791614,-0.00079953,-0.000806473,-0.000812416,-0.000817334,-0.0008212,-0.000823993,-0.000825692,-0.000826279,-0.000825739,-0.000824058,-0.000821228,-0.00081724,-0.000812092,-0.000805785,-0.00079832,-0.000789707,-0.000779955,-0.000769081,-0.000757104,-0.000744047,-0.000729938,-0.000714808,-0.000698696,-0.00068164,-0.000663686,-0.000644882,-0.000625282,-0.000604943,-0.000583924,-0.000562291,-0.000540112,-0.000517457,-0.000494399,-0.000471016,-0.000447386,-0.00042359,-0.000399711,-0.000375832,-0.000352037,-0.000328413,-0.000305043,-0.000282014,-0.000259408,-0.000237308,-0.000215797,-0.000194951,-0.000174848,-0.000155559,-0.000137156,-0.000119701,-0.000103255,-8.78741e-05,-7.36055e-05,-6.04918e-05,-4.85677e-05,-3.78597e-05,-2.83854e-05,-2.01519e-05,-1.31552e-05,-7.37858e-06,-2.79074e-06,6.55917e-07,3.02769e-06,4.41227e-06,4.92189e-06,4.69692e-06,3.91001e-06,2.77059e-06,1.53011e-06,4.88106e-07,-0
-0,1.63753e-07,1.20326e-07,-5.42322e-07,-2.13563e-06,-4.88868e-06,-8.96329e-06,-1.44666e-05,-2.14615e-05,-2.99754e-05,-4.00075e-05,-5.15348e-05,-6.45169e-05,-7.89002e-05,-9.46211e-05,-0.000111609,-0.000129787,-0.000149077,-0.000169397,-0.000190664,-0.000212797,-0.000235715,-0.000259336,-0.000283582,-0.000308377,-0.000333645,-0.000359313,-0.000385312,-0.000411572,-0.000438027,-0.000464614,-0.000491269,-0.000517932,-0.000544544,-0.000571049,-0.000597388,-0.000623509,-0.000649358,-0.000674881,-0.000700027,-0.000724744,-0.000748983,-0.000772694,-0.000795826,-0.000818332,-0.000840162,-0.000861268,-0.000881604,-0.000901121,-0.000919772,-0.000937512,-0.000954295,-0.000970076,-0.000984811,-0.000998456,-0.00101097,-0.00102231,-0.00103245,-0.00104133,-0.00104893,-0.00105521,-0.00106015,-0.0010637,-0.00106586,-0.00106659,-0.00106587,-0.0010637,-0.00106005,-0.00105492,-0.0010483,-0.0010402,-0.00103062,-0.00101957,-0.00100707,-0.000993127,-0.000977776,-0.000961044,-0.000942967,-0.000923586,-0.000902948,-0.000881104,-0.000858112,-0.000834034,-0.000808937,-0.000782894,-0.000755983,-0.000728284,-0.000699885,-0.000670875,-0.000641349,-0.000611403,-0.000581137,-0.000550655,-0.00052006,-0.00048946,-0.000458962,-0.000428673,-0.000398701,-0.000369155,-0.000340141,-0.000311764,-0.000284126,-0.000257328,-0.000231465,-0.00020663,-0.00018291,-0.000160388,-0.000139139,-0.000119232,-0.000100729,-8.36834e-05,-6.8138e-05,-5.41261e-05,-4.16697e-05,-3.07776e-05,-2.14447e-05,-1.365e-05,-7.35492e-06,-2.5007e-06,9.93765e-07,3.23512e-06,4.35892e-06,4.53365e-06,3.96512e-06,2.90172e-06,1.64039e-06,5.33878e-07,-0
-0,6.19411e-08,-3.18606e-07,-1.58227e-06,-4.0646e-06,-8.01382e-06,-1.36059e-05,-2.09571e-05,-3.01354e-05,-4.11688e-05,-5.40536e-05,-6.87608e-05,-8.52413e-05,-0.00010343,-0.000123252,-0.00014462,-0.000167443,-0.000191627,-0.000217071,-0.000243677,-0.000271345,-0.000299976,-0.000329471,-0.000359734,-0.000390672,-0.000422191,-0.000454204,-0.000486622,-0.000519361,-0.00055234,-0.000585479,-0.000618699,-0.000651928,-0.00068509,-0.000718114,-0.000750932,-0.000783474,-0.000815675,-0.000847467,-0.000878787,-0.00090957,-0.000939755,-0.000969278,-0.000998079,-0.0010261,-0.00105327,-0.00107954,-0.00110484,-0.00112912,-0.00115233,-0.00117439,-0.00119526,-0.00121488,-0.0012332,-0.00125015,-0.0012657,-0.00127979,-0.00129237,-0.0013034,-0.00131283,-0.00132062,-0.00132673,-0.00133113,-0.00133379,-0.00133467,-0.00133376,-0.00133104,-0.00132649,-0.0013201,-0.00131186,-0.00130178,-0.00128987,-0.00127613,-0.00126059,-0.00124326,-0.00122419,-0.0012034,-0.00118095,-0.00115688,-0.00113125,-0.00110413,-0.00107558,-0.00104569,-0.00101453,-0.000982196,-0.000948783,-0.000914393,-0.000879132,-0.000843109,-0.000806442,-0.00076925,-0.000731657,-0.000693788,-0.000655773,-0.000617743,-0.000579831,-0.000542168,-0.000504888,-0.000468124,-0.000432007,-0.000396666,-0.000362226,-0.000328812,-0.000296541,-0.000265527,-0.000235877,-0.000207692,-0.000181065,-0.000156081,-0.000132815,-0.000111332,-9.16857e-05,-7.39159e-05,-5.80495e-05,-4.40976e-05,-3.20542e-05,-2.18943e-05,-1.35718e-05,-7.01708e-06,-2.13421e-06,1.20239e-06,3.15146e-06,3.90925e-06,3.71426e-06,2.85287e-06,1.66588e-06,5.56464e-07,-0
-0,-7.71221e-08,-8.95052e-07,-2.91356e-06,-6.48475e-06,-1.187e-05,-1.92546e-05,-2.87605e-05,-4.04573e-05,-5.43714e-05,-7.04945e-05,-8.87896e-05,-0.000109198,-0.000131642,-0.000156032,-0.000182266,-0.000210238,-0.000239833,-0.000270936,-0.000303428,-0.00033719,-0.000372106,-0.000408056,-0.000444928,-0.000482608,-0.000520986,-0.000559954,-0.000599409,-0.000639248,-0.000679373,-0.000719687,-0.000760096,-0.000800511,-0.000840842,-0.000881002,-0.000920908,-0.000960475,-0.000999624,-0.00103827,-0.00107635,-0.00111376,-0.00115045,-0.00118633,-0.00122132,-0.00125536,-0.00128837,-0.00132028,-0.00135102,-0.00138051,-0.00140868,-0.00143547,-0.0014608,-0.00148461,-0.00150684,-0.00152742,-0.00154628,-0.00156336,-0.00157862,-0.00159198,-0.00160341,-0.00161284,-0.00162024,-0.00162557,-0.00162877,-0.00162983,-0.00162871,-0.00162539,-0.00161986,-0.00161209,-0.0016021,-0.00158987,-0.00157541,-0.00155875,-0.0015399,-0.0015189,-0.00149577,-0.00147058,-0.00144336,-0.00141419,-0.00138313,-0.00135026,-0.00131567,-0.00127944,-0.00124168,-0.0012025,-0.001162,-0.00112032,-0.00107759,-0.00103392,-0.000989472,-0.00094438,-0.000898794,-0.000852867,-0.000806754,-0.000760612,-0.0007146,-0.000668878,-0.000623607,-0.000578945,-0.00053505,-0.000492078,-0.000450179,-0.000409502,-0.000370189,-0.000332376,-0.000296191,-0.000261757,-0.000229184,-0.000198575,-0.000170019,-0.000143594,-0.000119364,-9.73779e-05,-7.76675e-05,-6.02467e-05,-4.5109e-05,-3.22257e-05,-2.15438e-05,-1.29828e-05,-6.43237e-06,-1.74841e-06,1.25051e-06,2.78766e-06,3.13316e-06,2.60989e-06,1.60025e-06,5.54372e-07,-0
-0,-2.53087e-07,-1.6088e-06,-4.53717e-06,-9.39942e-06,-1.64639e-05,-2.59203e-05,-3.7892e-05,-5.2447e-05,-6.96074e-05,-8.93577e-05,-0.000111652,-0.000136418,-0.000163567,-0.000192992,-0.000224577,-0.000258195,-0.000293715,-0.000331002,-0.000369917,-0.000410324,-0.000452083,-0.000495058,-0.000539115,-0.000584121,-0.000629947,-0.000676466,-0.000723555,-0.000771095,-0.000818968,-0.00086706,-0.000915261,-0.000963463,-0.00101156,-0.00105945,-0.00110703,-0.00115421,-0.00120088,-0.00124695,-0.00129234,-0.00133693,-0.00138065,-0.00142341,-0.00146511,-0.00150567,-0.001545,-0.00158301,-0.00161962,-0.00165474,-0.00168829,-0.00172019,-0.00175035,-0.0017787,-0.00180515,-0.00182964,-0.00185208,-0.00187241,-0.00189056,-0.00190645,-0.00192004,-0.00193126,-0.00194005,-0.00194638,-0.00195018,-0.00195143,-0.0019501,-0.00194614,-0.00193956,-0.00193032,-0.00191843,-0.00190388,-0.0018867,-0.00186689,-0.00184448,-0.00181952,-0.00179203,-0.00176209,-0.00172975,-0.00169508,-0.00165817,-0.00161911,-0.001578,-0.00153494,-0.00149007,-0.0014435,-0.00139538,-0.00134584,-0.00129503,-0.00124312,-0.00119027,-0.00113665,-0.00108243,-0.0010278,-0.00097293,-0.000918016,-0.000863242,-0.000808797,-0.00075487,-0.000701648,-0.000649318,-0.000598063,-0.000548061,-0.000499487,-0.000452508,-0.000407284,-0.000363969,-0.000322704,-0.000283621,-0.00024684,-0.000212467,-0.000180594,-0.000151296,-0.00012463,-0.000100636,-7.93301e-05,-6.07059e-05,-4.47318e-05,-3.13482e-05,-2.04646e-05,-1.19565e-05,-5.66219e-06,-1.37837e-06,1.14416e-06,2.20577e-06,2.16385e-06,1.43975e-06,5.26819e-07,-0
-0,-4.65336e-07,-2.45845e-06,-6.45139e-06,-1.28073e-05,-2.17954e-05,-3.36047e-05,-4.83555e-05,-6.61108e-05,-8.68853e-05,-0.000110654,-0.000137358,-0.000166915,-0.000199217,-0.000234143,-0.000271558,-0.000311316,-0.000353269,-0.000397258,-0.000443128,-0.000490718,-0.00053987,-0.000590426,-0.000642232,-0.000695134,-0.000748983,-0.000803632,-0.000858938,-0.000914762,-0.000970968,-0.00102742,-0.001084,-0.00114057,-0.00119702,-0.00125321,-0.00130904,-0.00136438,-0.00141914,-0.00147318,-0.00152641,-0.00157872,-0.00163,-0.00168013,-0.00172903,-0.00177659,-0.0018227,-0.00186726,-0.00191017,-0.00195134,-0.00199066,-0.00202804,-0.00206338,-0.0020966,-0.0021276,-0.00215628,-0.00218257,-0.00220638,-0.00222764,-0.00224626,-0.00226217,-0.0022753,-0.0022856,-0.00229301,-0.00229747,-0.00229894,-0.00229738,-0.00229276,-0.00228506,-0.00227426,-0.00226035,-0.00224335,-0.00222325,-0.00220009,-0.00217389,-0.00214469,-0.00211256,-0.00207755,-0.00203973,-0.00199919,-0.00195603,-0.00191036,-0.00186228,-0.00181193,-0.00175945,-0.00170499,-0.0016487,-0.00159074,-0.00153131,-0.00147057,-0.00140872,-0.00134596,-0.00128249,-0.00121852,-0.00115426,-0.00108993,-0.00102575,-0.000961934,-0.000898702,-0.000836273,-0.000774863,-0.000714685,-0.000655946,-0.000598849,-0.000543588,-0.00049035,-0.000439311,-0.000390638,-0.000344482,-0.000300984,-0.000260266,-0.000222436,-0.000187581,-0.000155768,-0.000127044,-0.00010143,-7.89193e-05,-5.94786e-05,-4.30425e-05,-2.95108e-05,-1.87463e-05,-1.05701e-05,-4.75835e-06,-1.0372e-06,9.22211e-07,1.50963e-06,1.18246e-06,4.73513e-07,-0
-0,-7.13095e-07,-3.44185e-06,-8.65268e-06,-1.67039e-05,-2.78596e-05,-4.23027e-05,-6.01464e-05,-8.14446e-05,-0.000106202,-0.00013438,-0.000165907,-0.000200684,-0.000238587,-0.000279477,-0.0003232,-0.00036959,-0.000418476,-0.000469682,-0.000523028,-0.000578333,-0.000635417,-0.000694101,-0.000754208,-0.000815564,-0.000877997,-0.000941341,-0.00100543,-0.00107011,-0.00113522,-0.00120061,-0.00126613,-0.00133163,-0.00139699,-0.00146204,-0.00152667,-0.00159074,-0.00165411,-0.00171666,-0.00177826,-0.00183879,-0.00189812,-0.00195614,-0.00201271,-0.00206773,-0.00212107,-0.00217261,-0.00222225,-0.00226986,-0.00231534,-0.00235857,-0.00239944,-0.00243785,-0.00247369,-0.00250686,-0.00253726,-0.00256479,-0.00258936,-0.00261089,-0.00262929,-0.00264449,-0.0026564,-0.00266498,-0.00267015,-0.00267187,-0.00267009,-0.00266478,-0.00265591,-0.00264347,-0.00262744,-0.00260784,-0.00258467,-0.00255795,-0.00252774,-0.00249407,-0.00245701,-0.00241662,-0.002373,-0.00232624,-0.00227645,-0.00222376,-0.00216829,-0.0021102,-0.00204964,-0.00198678,-0.00192181,-0.00185491,-0.00178629,-0.00171616,-0.00164474,-0.00157225,-0.00149892,-0.00142501,-0.00135074,-0.00127637,-0.00120214,-0.00112832,-0.00105515,-0.000982872,-0.000911746,-0.000842013,-0.000773911,-0.000707671,-0.000643517,-0.000581662,-0.000522311,-0.000465652,-0.000411861,-0.000361098,-0.000313505,-0.000269206,-0.0002283,-0.000190868,-0.000156963,-0.00012661,-9.98058e-05,-7.65156e-05,-5.66685e-05,-4.01561e-05,-2.68291e-05,-1.64928e-05,-8.90407e-06,-3.76589e-06,-7.22832e-07,6.44873e-07,8.27773e-07,3.94492e-07,-0
-0,-9.95507e-07,-4.55639e-06,-1.11364e-05,-2.10825e-05,-3.4648e-05,-5.20046e-05,-7.32539e-05,-9.8437e-05,-0.000127544,-0.000160523,-0.000197284,-0.000237711,-0.000281661,-0.000328976,-0.00037948,-0.000432987,-0.000489305,-0.000548234,-0.000609573,-0.000673117,-0.000738665,-0.000806014,-0.000874965,-0.000945321,-0.00101689,-0.00108948,-0.00116291,-0.001237,-0.00131157,-0.00138644,-0.00146146,-0.00153645,-0.00161126,-0.00168572,-0.00175969,-0.00183301,-0.00190552,-0.0019771,-0.00204758,-0.00211683,-0.00218471,-0.00225107,-0.00231579,-0.00237872,-0.00243973,-0.00249869,-0.00255546,-0.00260991,-0.00266192,-0.00271136,-0.0027581,-0.00280202,-0.00284301,-0.00288094,-0.0029157,-0.00294719,-0.0029753,-0.00299993,-0.00302098,-0.00303838,-0.00305203,-0.00306186,-0.00306781,-0.00306982,-0.00306784,-0.00306182,-0.00305174,-0.00303759,-0.00301934,-0.00299701,-0.00297062,-0.00294018,-0.00290575,-0.00286737,-0.00282512,-0.00277907,-0.00272934,-0.00267601,-0.00261923,-0.00255913,-0.00249586,-0.00242958,-0.00236049,-0.00228877,-0.00221462,-0.00213827,-0.00205993,-0.00197986,-0.0018983,-0.0018155,-0.00173173,-0.00164727,-0.00156238,-0.00147735,-0.00139246,-0.00130801,-0.00122426,-0.00114151,-0.00106004,-0.000980128,-0.00090204,-0.00082604,-0.000752383,-0.000681312,-0.000613057,-0.000547834,-0.000485843,-0.000427266,-0.000372264,-0.000320978,-0.000273525,-0.000229994,-0.000190448,-0.00015492,-0.00012341,-9.58798e-05,-7.22567e-05,-5.24246e-05,-3.62231e-05,-2.34433e-05,-1.38239e-05,-7.04664e-06,-2.73144e-06,-4.30851e-07,3.75959e-07,2.90017e-07,-0
-0,-1.31168e-06,-5.7992e-06,-1.38971e-05,-2.59351e-05,-4.215e-05,-6.26975e-05,-8.7663e-05,-0.000117071,-0.000150894,-0.000189062,-0.000231466,-0.00027797,-0.000328411,-0.000382608,-0.000440365,-0.000501472,-0.000565714,-0.000632868,-0.000702709,-0.00077501,-0.000849544,-0.000926087,-0.00100442,-0.00108431,-0.00116555,-0.00124794,-0.00133125,-0.00141529,-0.00149986,-0.00158477,-0.00166982,-0.00175484,-0.00183964,-0.00192404,-0.00200787,-0.00209095,-0.00217313,-0.00225423,-0.00233409,-0.00241256,-0.00248946,-0.00256465,-0.00263796,-0.00270925,-0.00277836,-0.00284515,-0.00290945,-0.00297113,-0.00303004,-0.00308604,-0.00313899,-0.00318874,-0.00323517,-0.00327814,-0.00331753,-0.00335321,-0.00338507,-0.00341299,-0.00343687,-0.00345661,-0.00347212,-0.00348331,-0.00349011,-0.00349245,-0.00349029,-0.00348356,-0.00347225,-0.00345632,-0.00343577,-0.00341061,-0.00338085,-0.00334652,-0.00330767,-0.00326437,-0.00321668,-0.00316471,-0.00310856,-0.00304835,-0.00298423,-0.00291635,-0.00284488,-0.00277001,-0.00269195,-0.00261089,-0.00252709,-0.00244078,-0.00235221,-0.00226166,-0.00216941,-0.00207574,-0.00198095,-0.00188535,-0.00178924,-0.00169295,-0.00159678,-0.00150107,-0.00140613,-0.00131228,-0.00121984,-0.00112912,-0.00104043,-0.000954051,-0.000870282,-0.000789392,-0.000711642,-0.000637274,-0.000566514,-0.000499567,-0.000436617,-0.000377822,-0.000323315,-0.0002732,-0.00022755,-0.000186404,-0.000149766,-0.0001176,-8.98297e-05,-6.63331e-05,-4.69402e-05,-3.1429e-05,-1.95219e-05,-1.0881e-05,-5.10349e-06,-1.7167e-06,-1.72145e-07,1.60477e-07,-0
-0,-1.66073e-06,-7.16732e-06,-1.69292e-05,-3.12528e-05,-5.03536e-05,-7.43662e-05,-0.000103355,-0.000137325,-0.000176227,-0.00021997,-0.000268424,-0.00032143,-0.000378802,-0.000440337,-0.000505813,-0.000574998,-0.000647652,-0.000723527,-0.000802375,-0.000883943,-0.000967981,-0.00105424,-0.00114247,-0.00123243,-0.00132388,-0.00141659,-0.00151032,-0.00160484,-0.00169995,-0.00179542,-0.00189105,-0.00198661,-0.00208193,-0.00217678,-0.00227099,-0.00236436,-0.0024567,-0.00254782,-0.00263755,-0.0027257,-0.0028121,-0.00289656,-0.00297893,-0.00305901,-0.00313665,-0.00321167,-0.00328391,-0.0033532,-0.00341938,-0.00348229,-0.00354177,-0.00359768,-0.00364985,-0.00369814,-0.00374241,-0.00378253,-0.00381835,-0.00384976,-0.00387665,-0.00389888,-0.00391638,-0.00392903,-0.00393676,-0.0039395,-0.00393718,-0.00392975,-0.00391718,-0.00389943,-0.00387651,-0.00384842,-0.00381517,-0.0037768,-0.00373336,-0.00368493,-0.00363158,-0.00357343,-0.00351058,-0.00344318,-0.00337139,-0.00329538,-0.00321533,-0.00313146,-0.00304399,-0.00295316,-0.00285923,-0.00276248,-0.00266317,-0.00256162,-0.00245814,-0.00235304,-0.00224666,-0.00213933,-0.00203142,-0.00192325,-0.0018152,-0.00170762,-0.00160086,-0.00149529,-0.00139126,-0.00128911,-0.00118918,-0.00109181,-0.000997317,-0.000906002,-0.000818159,-0.000734059,-0.000653956,-0.000578079,-0.000506634,-0.0004398,-0.000377729,-0.000320537,-0.00026831,-0.000221096,-0.000178903,-0.000141699,-0.000109405,-8.18938e-05,-5.8988e-05,-4.04541e-05,-2.59994e-05,-1.52683e-05,-7.83753e-06,-3.21106e-06,-8.1538e-07,6.33278e-09,-0
-0,-2.04178e-06,-8.65775e-06,-2.02266e-05,-3.70264e-05,-5.92458e-05,-8.6994e-05,-0.000120311,-0.000159176,-0.000203518,-0.000253219,-0.000308125,-0.000368054,-0.000432795,-0.000502117,-0.000575776,-0.000653513,-0.000735062,-0.000820151,-0.000908504,-0.000999844,-0.0010939,-0.00119038,-0.00128903,-0.00138958,-0.00149176,-0.00159531,-0.00169999,-0.00180553,-0.0019117,-0.00201825,-0.00212496,-0.0022316,-0.00233794,-0.00244377,-0.00254886,-0.002653,-0.002756,-0.00285763,-0.00295771,-0.00305602,-0.00315237,-0.00324657,-0.00333842,-0.00342773,-0.00351431,-0.00359798,-0.00367855,-0.00375583,-0.00382964,-0.00389981,-0.00396617,-0.00402854,-0.00408675,-0.00414064,-0.00419006,-0.00423485,-0.00427487,-0.00430998,-0.00434004,-0.00436493,-0.00438455,-0.00439878,-0.00440754,-0.00441073,-0.0044083,-0.00440019,-0.00438635,-0.00436676,-0.00434141,-0.0043103,-0.00427346,-0.00423091,-0.00418272,-0.00412897,-0.00406975,-0.00400517,-0.00393536,-0.00386048,-0.0037807,-0.00369621,-0.00360722,-0.00351395,-0.00341667,-0.00331563,-0.00321112,-0.00310344,-0.0029929,-0.00287983,-0.00276458,-0.00264751,-0.00252897,-0.00240935,-0.00228903,-0.0021684,-0.00204785,-0.00192779,-0.0018086,-0.00169068,-0.00157442,-0.00146021,-0.00134843,-0.00123944,-0.0011336,-0.00103125,-0.000932714,-0.000838289,-0.00074826,-0.000662884,-0.00058239,-0.000506981,-0.000436824,-0.000372055,-0.000312771,-0.000259031,-0.00021085,-0.000168198,-0.000130996,-9.91162e-05,-7.23721e-05,-5.05206e-05,-3.32562e-05,-2.02072e-05,-1.09314e-05,-4.91199e-06,-1.55245e-06,-1.71936e-07,-0
-0,-2.45399e-06,-1.02676e-05,-2.37835e-05,-4.32464e-05,-6.88134e-05,-0.000100564,-0.000138508,-0.000182599,-0.000232735,-0.000288773,-0.000350533,-0.000417802,-0.000490343,-0.000567901,-0.000650201,-0.000736959,-0.000827883,-0.000922671,-0.00102102,-0.00112264,-0.0012272,-0.00133443,-0.00144401,-0.00155566,-0.00166909,-0.001784,-0.00190013,-0.0020172,-0.00213495,-0.00225311,-0.00237142,-0.00248964,-0.00260751,-0.00272481,-0.00284128,-0.0029567,-0.00307083,-0.00318346,-0.00329435,-0.00340329,-0.00351005,-0.00361443,-0.00371621,-0.00381517,-0.00391111,-0.00400383,-0.00409311,-0.00417876,-0.00426057,-0.00433836,-0.00441192,-0.00448107,-0.00454563,-0.00460541,-0.00466024,-0.00470996,-0.0047544,-0.00479341,-0.00482684,-0.00485456,-0.00487645,-0.00489239,-0.00490227,-0.004906,-0.00490352,-0.00489475,-0.00487966,-0.00485821,-0.00483038,-0.00479618,-0.00475564,-0.0047088,-0.00465572,-0.00459647,-0.00453117,-0.00445994,-0.00438292,-0.00430028,-0.00421221,-0.00411891,-0.00402062,-0.00391759,-0.00381009,-0.00369842,-0.00358288,-0.0034638,-0.00334154,-0.00321645,-0.00308891,-0.00295931,-0.00282806,-0.00269557,-0.00256226,-0.00242856,-0.00229491,-0.00216174,-0.00202949,-0.0018986,-0.00176949,-0.00164259,-0.00151832,-0.00139709,-0.00127928,-0.00116527,-0.00105542,-0.000950071,-0.000849525,-0.000754071,-0.000663965,-0.000579432,-0.000500661,-0.000427805,-0.000360976,-0.000300244,-0.000245632,-0.000197116,-0.000154619,-0.00011801,-8.70972e-05,-6.16303e-05,-4.12918e-05,-2.56957e-05,-1.43829e-05,-6.81748e-06,-2.38209e-06,-3.73865e-07,-0