0,0,0,0,0,0,0,0,0,0,0,0,0,0,0,0,0,0,0,0,0,0,0,0,0,0,0,0,0,0,0,0,0,0,0,0,0,0,0,0,0,0,0,0,0,0,0,0,0,0,0,0,0,0,0,0,0,0,0,0,0,0,0,0,0,0,0,0,0,0,0,0,0,0,0,0,0,0,0,0,0,0,0,0,0,0,0,0,0,0,0,0,0,0,0,0,0,0,0,0,0,0,0,0,0,0,0,0,0,0,0,0,0,0,0,0,0,0,0,0,0,0,0,0,0,0,0,0
0,5.39839e-06,1.63981e-05,2.81513e-05,3.70371e-05,4.06209e-05,3.73789e-05,2.64331e-05,7.35051e-06,-1.9997e-05,-5.55298e-05,-9.90264e-05,-0.000150169,-0.000208578,-0.000273832,-0.000345486,-0.000423084,-0.000506166,-0.000594277,-0.000686969,-0.000783805,-0.000884363,-0.000988234,-0.00109503,-0.00120436,-0.00131589,-0.00142925,-0.00154412,-0.00166018,-0.00177714,-0.00189471,-0.00201259,-0.00213054,-0.00224829,-0.00236558,-0.00248219,-0.00259786,-0.00271238,-0.00282551,-0.00293703,-0.00304672,-0.00315437,-0.00325975,-0.00336267,-0.00346289,-0.00356021,-0.00365442,-0.00374531,-0.00383266,-0.00391627,-0.00399592,-0.00407141,-0.00414253,-0.00420908,-0.00427087,-0.00432768,-0.00437933,-0.00442564,-0.00446641,-0.00450149,-0.00453071,-0.00455391,-0.00457094,-0.00458169,-0.00458602,-0.00458384,-0.00457506,-0.0045596,-0.00453743,-0.00450849,-0.00447279,-0.00443033,-0.00438115,-0.00432529,-0.00426284,-0.00419391,-0.00411863,-0.00403714,-0.00394965,-0.00385635,-0.00375748,-0.00365331,-0.00354412,-0.00343022,-0.00331197,-0.00318971,-0.00306384,-0.00293476,-0.0028029,-0.0026687,-0.00253263,-0.00239517,-0.0022568,-0.00211804,-0.00197938,-0.00184134,-0.00170445,-0.00156922,-0.00143618,-0.00130585,-0.00117872,-0.0010553,-0.000936083,-0.000821533,-0.000712106,-0.000608236,-0.000510332,-0.000418777,-0.000333924,-0.000256091,-0.000185561,-0.000122573,-6.73202e-05,-1.99432e-05,1.9478e-05,5.09328e-05,7.44921e-05,9.03234e-05,9.87121e-05,0.000100089,9.50671e-05,8.44949e-05,6.95235e-05,5.16961e-05,3.305e-05,1.61913e-05,4.20342e-06,0
0,8.31022e-06,2.27958e-05,3.64128e-05,4.39729e-05,4.17638e-05,2.72777e-05,-1.05394e-06,-4.40924e-05,-0.000102179,-0.000175278,-0.000263083,-0.000365095,-0.000480681,-0.000609121,-0.000749632,-0.0009014,-0.00106359,-0.00123538,-0.00141594,-0.00160445,-0.00180012,-0.00200219,-0.0022099,-0.00242256,-0.00263945,-0.00285993,-0.00308336,-0.00330912,-0.00353664,-0.00376533,-0.00399468,-0.00422414,-0.00445322,-0.00468142,-0.00490827,-0.0051333,-0.00535605,-0.00557609,-0.00579297,-0.00600625,-0.00621553,-0.00642036,-0.00662033,-0.00681502,-0.00700402,-0.00718691,-0.00736328,-0.00753272,-0.00769483,-0.00784919,-0.00799541,-0.00813309,-0.00826183,-0.00838126,-0.008491,-0.00859067,-0.00867993,-0.00875843,-0.00882584,-0.00888185,-0.00892617,-0.00895853,-0.00897869,-0.00898643,-0.00898155,-0.00896389,-0.00893333,-0.00888977,-0.00883317,-0.0087635,-0.00868079,-0.00858511,-0.00847657,-0.00835535,-0.00822163,-0.00807569,-0.00791783,-0.0077484,-0.00756782,-0.00737654,-0.00717506,-0.00696395,-0.00674381,-0.00651528,-0.00627907,-0.00603591,-0.00578659,-0.00553192,-0.00527275,-0.00500996,-0.00474448,-0.00447723,-0.00420917,-0.00394128,-0.00367454,-0.00340993,-0.00314845,-0.0028911,-0.00263884,-0.00239265,-0.00215348,-0.00192224,-0.00169983,-0.00148712,-0.00128492,-0.001094,-0.000915077,-0.000748814,-0.000595803,-0.000456562,-0.000331527,-0.000221042,-0.000125345,-4.45588e-05,2.13336e-05,7.25044e-05,0.000109311,0.000132333,0.000142411,0.000140713,0.000128797,0.000108703,8.30463e-05,5.5101e-05,2.88269e-05,8.78304e-06,0
0,8.22319e-06,2.07722e-05,2.95051e-05,2.85168e-05,1.35015e-05,-1.85669e-05,-6.96776e-05,-0.000140996,-0.000233048,-0.000345869,-0.00047913,-0.000632229,-0.000804366,-0.000994604,-0.00120191,-0.00142519,-0.00166331,-0.00191513,-0.0021795,-0.0024553,-0.00274141,-0.00303674,-0.00334024,-0.0036509,-0.00396771,-0.00428973,-0.00461604,-0.00494576,-0.00527803,-0.00561203,-0.00594697,-0.00628209,-0.00661663,-0.00694988,-0.00728113,-0.00760971,-0.00793494,-0.00825616,-0.00857272,-0.008884,-0.00918936,-0.00948818,-0.00977983,-0.0100637,-0.0103392,-0.0106057,-0.0108627,-0.0111094,-0.0113453,-0.0115699,-0.0117826,-0.0119827,-0.0121697,-0.0123431,-0.0125022,-0.0126467,-0.0127759,-0.0128894,-0.0129868,-0.0130675,-0.0131311,-0.0131774,-0.0132058,-0.0132162,-0.0132083,-0.0131818,-0.0131366,-0.0130725,-0.0129894,-0.0128875,-0.0127666,-0.012627,-0.0124688,-0.0122922,-0.0120975,-0.0118852,-0.0116557,-0.0114094,-0.011147,-0.0108692,-0.0105767,-0.0102703,-0.00995077,-0.0096192,-0.00927652,-0.00892381,-0.00856218,-0.00819281,-0.00781693,-0.0074358,-0.00705072,-0.00666305,-0.00627414,-0.00588539,-0.00549822,-0.00511402,-0.00473423,-0.00436025,-0.00399348,-0.00363531,-0.00328708,-0.00295011,-0.00262567,-0.00231499,-0.00201922,-0.00173946,-0.00147672,-0.00123192,-0.0010059,-0.000799369,-0.000612933,-0.000447052,-0.000302037,-0.000178026,-7.49602e-05,7.44003e-06,6.97149e-05,0.000112705,0.000137606,0.000146024,0.000140056,0.000122362,9.62454e-05,6.57177e-05,3.55461e-05,1.13444e-05,0
0,6.07512e-06,1.27004e-05,1.16129e-05,-3.26314e-06,-3.64116e-05,-9.10502e-05,-0.000169356,-0.000272651,-0.000401569,-0.000556195,-0.000736185,-0.000940869,-0.00116933,-0.00142047,-0.00169307,-0.0019858,-0.00229729,-0.00262616,-0.00297098,-0.00333034,-0.00370288,-0.00408721,-0.00448201,-0.00488598,-0.00529788,-0.00571648,-0.0061406,-0.00656911,-0.00700091,-0.00743493,-0.00787016,-0.00830558,-0.00874024,-0.0091732,-0.00960353,-0.0100303,-0.0104528,-0.0108699,-0.011281,-0.0116851,-0.0120815,-0.0124693,-0.0128477,-0.013216,-0.0135733,-0.0139188,-0.0142518,-0.0145715,-0.0148771,-0.0151678,-0.015443,-0.0157018,-0.0159436,-0.0161676,-0.0163731,-0.0165595,-0.0167261,-0.0168722,-0.0169974,-0.017101,-0.0171825,-0.0172414,-0.0172773,-0.0172898,-0.0172786,-0.0172434,-0.017184,-0.0171002,-0.0169921,-0.0168595,-0.0167025,-0.0165213,-0.0163162,-0.0160874,-0.0158354,-0.0155606,-0.0152637,-0.0149453,-0.0146062,-0.0142472,-0.0138693,-0.0134734,-0.0130609,-0.0126328,-0.0121903,-0.011735,-0.0112682,-0.0107914,-0.0103062,-0.00981414,-0.00931697,-0.00881637,-0.00831409,-0.0078119,-0.00731159,-0.00681497,-0.00632383,-0.00583997,-0.00536518,-0.0049012,-0.00444975,-0.00401249,-0.00359105,-0.00318697,-0.00280171,-0.00243665,-0.00209306,-0.0017721,-0.00147482,-0.0012021,-0.000954677,-0.000733116,-0.000537779,-0.000368812,-0.000226117,-0.000109313,-1.77068e-05,4.97575e-05,9.45471e-05,0.0001186,0.000124387,0.00011498,9.41192e-05,6.62795e-05,3.67752e-05,1.19917e-05,0
0,2.68207e-06,6.13398e-07,-1.38848e-05,-4.6625e-05,-0.000101964,-0.000183073,-0.00029213,-0.00043048,-0.000598773,-0.000797094,-0.00102507,-0.00128197,-0.00156677,-0.00187826,-0.00221505,-0.00257564,-0.00295847,-0.00336193,-0.00378437,-0.00422416,-0.00467968,-0.00514932,-0.0056315,-0.0061247,-0.0066274,-0.00713816,-0.00765557,-0.00817825,-0.00870487,-0.00923416,-0.00976486,-0.0102958,-0.0108257,-0.0113535,-0.011878,-0.0123982,-0.012913,-0.0134213,-0.0139222,-0.0144145,-0.0148973,-0.0153695,-0.0158302,-0.0162785,-0.0167133,-0.0171337,-0.0175387,-0.0179274,-0.0182988,-0.0186521,-0.0189863,-0.0193006,-0.0195939,-0.0198656,-0.0201148,-0.0203405,-0.0205422,-0.020719,-0.0208701,-0.0209951,-0.0210931,-0.0211638,-0.0212064,-0.0212207,-0.0212062,-0.0211626,-0.0210896,-0.0209871,-0.020855,-0.0206934,-0.0205022,-0.0202818,-0.0200324,-0.0197544,-0.0194484,-0.0191148,-0.0187544,-0.0183682,-0.0179568,-0.0175215,-0.0170634,-0.0165836,-0.0160836,-0.0155647,-0.0150286,-0.0144769,-0.0139112,-0.0133335,-0.0127455,-0.0121491,-0.0115465,-0.0109396,-0.0103306,-0.00972146,-0.00911443,-0.00851164,-0.00791525,-0.0073274,-0.00675021,-0.00618578,-0.00563615,-0.0051033,-0.00458916,-0.00409557,-0.00362426,-0.00317687,-0.0027549,-0.00235974,-0.00199258,-0.00165449,-0.00134632,-0.00106871,-0.000822076,-0.000606575,-0.000422072,-0.000268113,-0.000143883,-4.81685e-05,2.06958e-05,6.48748e-05,8.70892e-05,9.06726e-05,7.9635e-05,5.87442e-05,3.36633e-05,1.12279e-05,0
0,-1.42099e-06,-1.40065e-05,-4.444e-05,-9.79504e-05,-0.000178529,-0.000289114,-0.000431733,-0.000607634,-0.000817402,-0.00106106,-0.00133818,-0.00164794,-0.00198924,-0.00236073,-0.00276091,-0.00318813,-0.00364065,-0.00411667,-0.00461438,-0.00513193,-0.00566748,-0.00621924,-0.00678539,-0.0073642,-0.00795395,-0.00855297,-0.00915962,-0.00977233,-0.0103896,-0.0110098,-0.0116317,-0.0122537,-0.0128744,-0.0134927,-0.014107,-0.0147162,-0.015319,-0.0159142,-0.0165005,-0.0170767,-0.0176417,-0.0181942,-0.0187332,-0.0192575,-0.0197659,-0.0202574,-0.0207308,-0.021185,-0.0216189,-0.0220314,-0.0224216,-0.0227883,-0.0231306,-0.0234473,-0.0237377,-0.0240007,-0.0242355,-0.0244411,-0.0246168,-0.0247619,-0.0248755,-0.0249571,-0.025006,-0.0250218,-0.0250041,-0.0249524,-0.0248665,-0.0247463,-0.0245916,-0.0244024,-0.024179,-0.0239215,-0.0236304,-0.0233059,-0.0229489,-0.0225599,-0.0221398,-0.0216895,-0.0212102,-0.020703,-0.0201692,-0.0196104,-0.019028,-0.0184237,-0.0177993,-0.0171567,-0.0164978,-0.0158249,-0.0151399,-0.0144451,-0.0137429,-0.0130355,-0.0123255,-0.0116151,-0.010907,-0.0102035,-0.00950716,-0.0088204,-0.00814569,-0.0074854,-0.0068419,-0.00621745,-0.00561427,-0.00503444,-0.00447997,-0.00395272,-0.0034544,-0.00298658,-0.00255064,-0.00214777,-0.00177893,-0.00144485,-0.00114599,-0.000882527,-0.000654304,-0.000460819,-0.000301179,-0.00017406,-7.76695e-05,-9.69869e-06,3.27241e-05,5.30845e-05,5.55433e-05,4.5023e-05,2.73489e-05,9.49724e-06,0
0,-5.90533e-06,-3.01429e-05,-7.82091e-05,-0.000154542,-0.00026259,-0.000404908,-0.000583254,-0.000798679,-0.00105162,-0.00134199,-0.00166924,-0.00203246,-0.00243045,-0.00286174,-0.00332471,-0.00381757,-0.00433843,-0.00488536,-0.00545634,-0.00604937,-0.00666244,-0.00729355,-0.00794071,-0.00860197,-0.00927544,-0.00995925,-0.0106516,-0.0113506,-0.0120547,-0.0127621,-0.0134712,-0.0141803,-0.014888,-0.0155927,-0.0162928,-0.0169871,-0.0176739,-0.0183519,-0.0190198,-0.0196761,-0.0203195,-0.0209486,-0.0215622,-0.022159,-0.0227376,-0.0232967,-0.0238352,-0.0243517,-0.0248451,-0.0253141,-0.0257575,-0.0261741,-0.0265628,-0.0269224,-0.027252,-0.0275504,-0.0278166,-0.0280496,-0.0282486,-0.0284127,-0.0285412,-0.0286332,-0.0286881,-0.0287054,-0.0286846,-0.0286254,-0.0285273,-0.0283903,-0.0282143,-0.0279993,-0.0277454,-0.0274529,-0.0271223,-0.0267541,-0.0263489,-0.0259076,-0.0254311,-0.0249205,-0.024377,-0.0238019,-0.0231968,-0.0225632,-0.0219029,-0.0212179,-0.0205101,-0.0197815,-0.0190345,-0.0182714,-0.0174946,-0.0167065,-0.0159098,-0.0151071,-0.0143011,-0.0134945,-0.0126901,-0.0118906,-0.0110988,-0.0103175,-0.00954944,-0.00879722,-0.0080635,-0.00735083,-0.00666165,-0.00599833,-0.00536307,-0.00475796,-0.00418491,-0.00364566,-0.00314174,-0.00267448,-0.00224494,-0.00185393,-0.00150197,-0.00118925,-0.000915639,-0.000680597,-0.000483193,-0.000322044,-0.000195286,-0.000100536,-3.48483e-05,5.32854e-06,2.42084e-05,2.67472e-05,1.8764e-05,7.12547e-06,0
0,-1.05709e-05,-4.71163e-05,-0.000113889,-0.000214423,-0.000351504,-0.000527193,-0.000742878,-0.00099933,-0.00129677,-0.00163493,-0.00201312,-0.00243032,-0.00288517,-0.00337613,-0.00390141,-0.00445911,-0.00504721,-0.00566363,-0.00630621,-0.00697279,-0.00766119,-0.00836925,-0.00909482,-0.00983578,-0.01059,-0.0113556,-0.0121304,-0.0129125,-0.0137,-0.0144911,-0.0152839,-0.0160767,-0.0168677,-0.0176552,-0.0184376,-0.0192133,-0.0199806,-0.0207379,-0.0214838,-0.0222167,-0.0229351,-0.0236375,-0.0243225,-0.0249885,-0.0256342,-0.026258,-0.0268587,-0.0274348,-0.027985,-0.0285078,-0.0290021,-0.0294663,-0.0298994,-0.0303001,-0.030667,-0.0309992,-0.0312955,-0.0315548,-0.0317761,-0.0319586,-0.0321012,-0.0322033,-0.0322641,-0.0322831,-0.0322597,-0.0321934,-0.032084,-0.0319313,-0.0317353,-0.0314958,-0.0312133,-0.0308879,-0.0305201,-0.0301105,-0.02966,-0.0291692,-0.0286394,-0.0280717,-0.0274675,-0.0268282,-0.0261555,-0.0254512,-0.0247172,-0.0239556,-0.0231686,-0.0223585,-0.0215277,-0.020679,-0.0198148,-0.0189379,-0.0180512,-0.0171576,-0.01626,-0.0153614,-0.0144649,-0.0135734,-0.0126901,-0.011818,-0.01096,-0.0101192,-0.00929829,-0.00850018,-0.00772753,-0.00698293,-0.0062688,-0.00558743,-0.00494091,-0.00433114,-0.00375982,-0.00322838,-0.002738,-0.00228957,-0.00188367,-0.00152055,-0.00120008,-0.000921746,-0.000684596,-0.000487235,-0.00032778,-0.000203828,-0.000112422,-5.00173e-05,-1.24301e-05,5.22477e-06,8.62152e-06,4.34072e-06,0
0,-1.52956e-05,-6.44766e-05,-0.000150573,-0.000276169,-0.000443313,-0.000653497,-0.000907663,-0.00120623,-0.00154915,-0.00193592,-0.00236568,-0.00283723,-0.0033491,-0.00389957,-0.00448676,-0.00510864,-0.00576304,-0.00644776,-0.0071605,-0.00789896,-0.00866081,-0.00944374,-0.0102455,-0.0110637,-0.0118962,-0.0127407,-0.0135952,-0.0144574,-0.0153254,-0.0161971,-0.0170705,-0.0179438,-0.0188149,-0.0196821,-0.0205435,-0.0213973,-0.0222419,-0.0230754,-0.0238962,-0.0247027,-0.025493,-0.0262657,-0.027019,-0.0277515,-0.0284615,-0.0291474,-0.0298078,-0.030441,-0.0310456,-0.0316202,-0.0321632,-0.0326732,-0.0331489,-0.0335889,-0.0339919,-0.0343566,-0.0346819,-0.0349665,-0.0352094,-0.0354096,-0.0355662,-0.0356782,-0.035745,-0.0357659,-0.0357403,-0.0356677,-0.0355479,-0.0353807,-0.0351659,-0.0349036,-0.0345941,-0.0342377,-0.0338349,-0.0333863,-0.0328929,-0.0323554,-0.0317752,-0.0311535,-0.0304917,-0.0297915,-0.0290547,-0.0282832,-0.0274791,-0.0266447,-0.0257823,-0.0248945,-0.023984,-0.0230534,-0.0221058,-0.021144,-0.0201712,-0.0191905,-0.018205,-0.0172181,-0.016233,-0.0152531,-0.0142815,-0.0133216,-0.0123767,-0.0114499,-0.0105444,-0.00966307,-0.00880898,-0.00798487,-0.00719337,-0.00643696,-0.0057179,-0.00503827,-0.00439988,-0.00380431,-0.00325285,-0.00274648,-0.00228586,-0.00187129,-0.00150268,-0.00117955,-0.000900992,-0.000665615,-0.00047156,-0.000316454,-0.000197384,-0.00011087,-5.28291e-05,-1.85312e-05,-2.54888e-06,1.30141e-06,0
0,-2.00043e-05,-8.19275e-05,-0.000187636,-0.000338761,-0.000536581,-0.000781967,-0.00107536,-0.00141679,-0.00180585,-0.00224181,-0.00272357,-0.00324973,-0.00381867,-0.00442852,-0.00507726,-0.00576271,-0.00648261,-0.00723459,-0.00801624,-0.00882513,-0.00965879,-0.0105148,-0.0113907,-0.012284,-0.0131925,-0.0141136,-0.0150453,-0.0159851,-0.0169309,-0.0178804,-0.0188317,-0.0197825,-0.0207309,-0.0216748,-0.0226124,-0.0235416,-0.0244605,-0.0253674,-0.0262603,-0.0271375,-0.0279971,-0.0288374,-0.0296566,-0.030453,-0.0312249,-0.0319706,-0.0326884,-0.0333766,-0.0340337,-0.0346581,-0.0352482,-0.0358024,-0.0363192,-0.0367973,-0.0372351,-0.0376314,-0.0379848,-0.038294,-0.0385581,-0.0387758,-0.0389461,-0.0390681,-0.0391411,-0.0391643,-0.0391371,-0.0390591,-0.0389298,-0.0387492,-0.0385171,-0.0382335,-0.0378988,-0.0375133,-0.0370775,-0.0365921,-0.0360582,-0.0354765,-0.0348485,-0.0341756,-0.0334592,-0.0327011,-0.0319033,-0.0310678,-0.0301969,-0.029293,-0.0283587,-0.0273966,-0.0264097,-0.0254008,-0.0243731,-0.0233298,-0.0222742,-0.0212096,-0.0201395,-0.0190673,-0.0179966,-0.016931,-0.0158738,-0.0148288,-0.0137993,-0.0127887,-0.0118005,-0.0108378,-0.00990388,-0.0090016,-0.00813385,-0.00730327,-0.00651231,-0.0057632,-0.00505789,-0.00439811,-0.00378524,-0.00322037,-0.00270426,-0.00223727,-0.00181939,-0.00145019,-0.0011288,-0.000853915,-0.000623716,-0.0004359,-0.000287645,-0.000175583,-9.5789e-05,-4.37525e-05,-1.43594e-05,-1.88244e-06,0
0,-2.46516e-05,-9.92761e-05,-0.000224652,-0.000401482,-0.000630266,-0.00091123,-0.00124428,-0.001629,-0.00206463,-0.00255012,-0.00308412,-0.00366502,-0.00429101,-0.00496006,-0.00566998,-0.00641848,-0.00720313,-0.00802146,-0.00887094,-0.00974899,-0.010653,-0.0115805,-0.0125288,-0.0134954,-0.0144778,-0.0154735,-0.0164801,-0.0174951,-0.0185163,-0.0195414,-0.020568,-0.0215939,-0.022617,-0.0236352,-0.0246463,-0.0256483,-0.0266391,-0.0276168,-0.0285793,-0.0295248,-0.0304513,-0.0313568,-0.0322396,-0.0330978,-0.0339295,-0.0347329,-0.0355063,-0.0362478,-0.0369557,-0.0376283,-0.038264,-0.0388611,-0.0394179,-0.039933,-0.0404047,-0.0408318,-0.0412128,-0.0415463,-0.0418312,-0.0420662,-0.0422504,-0.0423827,-0.0424622,-0.0424883,-0.0424603,-0.0423777,-0.0422401,-0.0420473,-0.0417992,-0.0414959,-0.0411377,-0.0407249,-0.0402582,-0.0397382,-0.0391659,-0.0385425,-0.0378692,-0.0371476,-0.0363792,-0.0355661,-0.0347101,-0.0338135,-0.0328787,-0.0319083,-0.030905,-0.0298716,-0.0288112,-0.027727,-0.0266222,-0.0255003,-0.0243646,-0.0232189,-0.0220668,-0.0209119,-0.0197581,-0.0186091,-0.0174685,-0.0163403,-0.0152281,-0.0141355,-0.0130662,-0.0120235,-0.0110108,-0.0100313,-0.0090881,-0.00818391,-0.00732141,-0.00650296,-0.0057307,-0.00500645,-0.00433176,-0.0037078,-0.00313544,-0.00261513,-0.00214695,-0.00173056,-0.00136517,-0.00104953,-0.000781932,-0.000560178,-0.000381563,-0.000242878,-0.000140395,-6.98665e-05,-2.65298e-05,-5.1346e-06,0
0,-2.92105e-05,-0.000116399,-0.000261335,-0.000463832,-0.000723625,-0.00104028,-0.00141315,-0.00184135,-0.00232373,-0.0028589,-0.00344523,-0.00408088,-0.00476381,-0.00549181,-0.00626255,-0.00707357,-0.00792232,-0.00880619,-0.00972251,-0.0106686,-0.0116417,-0.0126393,-0.0136584,-0.0146967,-0.0157512,-0.0168196,-0.0178992,-0.0189875,-0.020082,-0.0211803,-0.0222801,-0.0233789,-0.0244745,-0.0255646,-0.026647,-0.0277195,-0.02878,-0.0298262,-0.0308562,-0.0318679,-0.0328592,-0.033828,-0.0347725,-0.0356906,-0.0365803,-0.0374397,-0.038267,-0.0390603,-0.0398176,-0.0405372,-0.0412173,-0.0418562,-0.0424521,-0.0430034,-0.0435086,-0.0439659,-0.0443741,-0.0447317,-0.0450374,-0.0452899,-0.0454881,-0.0456311,-0.0457178,-0.0457475,-0.0457196,-0.0456334,-0.0454886,-0.0452849,-0.0450223,-0.0447009,-0.0443208,-0.0438826,-0.0433868,-0.0428342,-0.0422259,-0.0415629,-0.0408467,-0.0400788,-0.039261,-0.0383952,-0.0374836,-0.0365285,-0.0355324,-0.0344981,-0.0334284,-0.0323264,-0.0311951,-0.0300381,-0.0288587,-0.0276605,-0.0264473,-0.0252227,-0.0239908,-0.0227553,-0.0215203,-0.0202897,-0.0190675,-0.0178577,-0.0166642,-0.0154909,-0.0143415,-0.0132197,-0.0121291,-0.011073,-0.0100547,-0.00907717,-0.00814321,-0.00725537,-0.00641592,-0.00562684,-0.0048898,-0.0042061,-0.00357673,-0.00300225,-0.00248285,-0.00201827,-0.00160784,-0.00125041,-0.000944408,-0.000687746,-0.000477882,-0.000311788,-0.000185966,-9.6455e-05,-3.88604e-05,-8.40278e-06,0
0,-3.36658e-05,-0.000133219,-0.000297497,-0.000525474,-0.000816135,-0.0011684,-0.00158105,-0.00205272,-0.00258184,-0.00316667,-0.00380527,-0.00449554,-0.00523522,-0.0060219,-0.00685306,-0.0077261,-0.00863831,-0.00958696,-0.0105692,-0.0115824,-0.0126235,-0.0136898,-0.0147785,-0.0158869,-0.0170121,-0.0181515,-0.0193023,-0.020462,-0.021628,-0.0227978,-0.0239687,-0.0251385,-0.0263045,-0.0274646,-0.0286163,-0.0297574,-0.0308855,-0.0319985,-0.033094,-0.03417,-0.0352243,-0.0362547,-0.0372591,-0.0382355,-0.0391818,-0.0400958,-0.0409758,-0.0418195,-0.0426251,-0.0433907,-0.0441144,-0.0447943,-0.0454287,-0.0460157,-0.0465538,-0.0470413,-0.0474766,-0.0478582,-0.0481849,-0.0484552,-0.048668,-0.0488222,-0.0489168,-0.048951,-0.048924,-0.0488354,-0.0486846,-0.0484715,-0.0481959,-0.0478579,-0.0474577,-0.0469959,-0.046473,-0.0458898,-0.0452474,-0.044547,-0.04379,-0.0429781,-0.042113,-0.041197,-0.0402321,-0.0392208,-0.0381658,-0.03707,-0.0359362,-0.0347677,-0.0335679,-0.0323402,-0.0310883,-0.0298159,-0.028527,-0.0272254,-0.0259154,-0.0246009,-0.0232862,-0.0219755,-0.0206729,-0.0193827,-0.0181089,-0.0168557,-0.0156269,-0.0144267,-0.0132585,-0.0121261,-0.0110329,-0.009982,-0.00897645,-0.00801893,-0.00711189,-0.00625746,-0.00545744,-0.00471331,-0.00402614,-0.00339665,-0.00282514,-0.00231147,-0.0018551,-0.00145503,-0.00110978,-0.000817448,-0.000575662,-0.0003816,-0.000232007,-0.000123221,-5.12127e-05,-1.1652e-05,0
0,-3.80104e-05,-0.000149691,-0.000333023,-0.000586183,-0.00090744,-0.00129507,-0.0017473,-0.00226226,-0.00283797,-0.00347229,-0.00416298,-0.00490765,-0.00570381,-0.00654882,-0.00743999,-0.00837453,-0.0093496,-0.0103623,-0.0114098,-0.012489,-0.0135971,-0.0147311,-0.0158881,-0.0170653,-0.0182598,-0.0194687,-0.0206893,-0.0219189,-0.0231547,-0.0243942,-0.0256347,-0.0268736,-0.0281084,-0.0293367,-0.030556,-0.0317639,-0.032958,-0.0341359,-0.0352954,-0.0364342,-0.0375499,-0.0386404,-0.0397034,-0.0407368,-0.0417383,-0.0427059,-0.0436374,-0.0445307,-0.0453837,-0.0461946,-0.0469612,-0.0476817,-0.0483541,-0.0489766,-0.0495475,-0.050065,-0.0505275,-0.0509335,-0.0512814,-0.05157,-0.051798,-0.0519642,-0.0520675,-0.0521072,-0.0520824,-0.0519926,-0.0518372,-0.0516161,-0.051329,-0.0509761,-0.0505576,-0.0500739,-0.0495257,-0.0489139,-0.0482394,-0.0475036,-0.046708,-0.0458541,-0.044944,-0.0439798,-0.0429637,-0.0418984,-0.0407866,-0.0396312,-0.0384354,-0.0372024,-0.0359359,-0.0346393,-0.0333167,-0.0319718,-0.0306087,-0.0292317,-0.0278449,-0.0264527,-0.0250595,-0.0236696,-0.0222875,-0.0209176,-0.0195641,-0.0182315,-0.0169238,-0.0156452,-0.0143996,-0.0131908,-0.0120225,-0.010898,-0.00982046,-0.00879277,-0.00781756,-0.00689712,-0.00603341,-0.00522805,-0.00448227,-0.00379692,-0.00317244,-0.00260885,-0.00210574,-0.00166224,-0.00127706,-0.000948449,-0.000674233,-0.000451808,-0.000278172,-0.00014996,-6.34948e-05,-1.486e-05,0
0,-4.22418e-05,-0.000165794,-0.000367842,-0.000645818,-0.000997305,-0.00141996,-0.00191144,-0.00246939,-0.00309139,-0.00377493,-0.00451742,-0.00531618,-0.00616846,-0.00707141,-0.00802213,-0.00901767,-0.010055,-0.0111311,-0.012243,-0.0133875,-0.0145616,-0.0157623,-0.0169866,-0.0182314,-0.0194939,-0.0207711,-0.0220601,-0.0233582,-0.0246624,-0.0259701,-0.0272786,-0.0285852,-0.0298873,-0.0311823,-0.0324677,-0.0337409,-0.0349995,-0.036241,-0.0374631,-0.0386632,-0.0398392,-0.0409885,-0.042109,-0.0431983,-0.0442541,-0.0452742,-0.0462565,-0.0471986,-0.0480986,-0.0489541,-0.0497633,-0.050524,-0.0512343,-0.0518923,-0.052496,-0.0530438,-0.0535339,-0.0539646,-0.0543345,-0.054642,-0.054886,-0.0550651,-0.0551782,-0.0552245,-0.0552031,-0.0551134,-0.0549549,-0.0547273,-0.0544303,-0.0540642,-0.053629,-0.0531254,-0.0525538,-0.0519152,-0.0512107,-0.0504414,-0.0496091,-0.0487153,-0.0477622,-0.0467517,-0.0456865,-0.044569,-0.0434022,-0.0421891,-0.040933,-0.0396373,-0.0383056,-0.0369418,-0.0355498,-0.0341337,-0.0326978,-0.0312463,-0.0297838,-0.0283148,-0.0268438,-0.0253754,-0.0239143,-0.022465,-0.0210321,-0.0196202,-0.0182335,-0.0168765,-0.0155533,-0.0142678,-0.013024,-0.0118253,-0.0106751,-0.0095766,-0.00853247,-0.00754521,-0.00661695,-0.00574949,-0.00494421,-0.00420213,-0.00352384,-0.00290952,-0.0023589,-0.00187129,-0.00144557,-0.00108018,-0.000773144,-0.000522078,-0.000324237,-0.000176544,-7.56501e-05,-1.80139e-05,0
0,-4.63613e-05,-0.000181518,-0.000401921,-0.000704301,-0.00108559,-0.00154283,-0.00207315,-0.00267369,-0.0033416,-0.00407397,-0.00486788,-0.00572035,-0.00662834,-0.00758879,-0.00859859,-0.00965457,-0.0107536,-0.0118925,-0.013068,-0.014277,-0.0155163,-0.0167828,-0.0180733,-0.0193848,-0.0207142,-0.0220586,-0.0234148,-0.0247801,-0.0261515,-0.0275262,-0.0289014,-0.0302744,-0.0316424,-0.0330028,-0.0343529,-0.0356902,-0.0370121,-0.038316,-0.0395994,-0.0408599,-0.042095,-0.0433022,-0.0444792,-0.0456236,-0.046733,-0.047805,-0.0488375,-0.049828,-0.0507744,-0.0516745,-0.052526,-0.053327,-0.0540752,-0.0547688,-0.0554057,-0.0559842,-0.0565023,-0.0569584,-0.057351,-0.0576784,-0.0579393,-0.0581323,-0.0582565,-0.0583107,-0.0582941,-0.058206,-0.0580458,-0.0578133,-0.0575082,-0.0571306,-0.0566806,-0.0561588,-0.0555657,-0.0549022,-0.0541695,-0.0533688,-0.0525017,-0.0515699,-0.0505755,-0.0495207,-0.0484081,-0.0472402,-0.0460201,-0.044751,-0.0434361,-0.042079,-0.0406836,-0.0392537,-0.0377935,-0.0363073,-0.0347994,-0.0332743,-0.0317368,-0.0301915,-0.0286431,-0.0270965,-0.0255565,-0.024028,-0.0225156,-0.0210241,-0.0195582,-0.0181224,-0.016721,-0.0153582,-0.0140381,-0.0127645,-0.0115409,-0.0103706,-0.00925664,-0.0082016,-0.00720783,-0.00627729,-0.00541156,-0.00461182,-0.00387884,-0.00321296,-0.00261409,-0.00208173,-0.00161492,-0.00121231,-0.000872127,-0.000592215,-0.000370074,-0.000202901,-8.76496e-05,-2.11082e-05,0
0,-5.03717e-05,-0.000196866,-0.000435249,-0.000761592,-0.0011722,-0.00166355,-0.00223222,-0.00287489,-0.00358824,-0.00436899,-0.00521387,-0.00611959,-0.00708284,-0.00810031,-0.00916866,-0.0102846,-0.0114447,-0.0126456,-0.0138842,-0.015157,-0.0164607,-0.0177921,-0.019148,-0.0205252,-0.0219206,-0.023331,-0.0247535,-0.0261849,-0.0276224,-0.0290629,-0.0305037,-0.0319419,-0.0333748,-0.0347995,-0.0362133,-0.0376136,-0.0389977,-0.040363,-0.0417069,-0.0430268,-0.0443202,-0.0455846,-0.0468174,-0.0480162,-0.0491786,-0.0503022,-0.0513844,-0.0524231,-0.0534158,-0.0543603,-0.0552543,-0.0560957,-0.0568822,-0.0576117,-0.0582824,-0.0588921,-0.059439,-0.0599214,-0.0603375,-0.0606858,-0.0609648,-0.0611731,-0.0613096,-0.0613731,-0.0613628,-0.0612778,-0.0611177,-0.060882,-0.0605705,-0.0601832,-0.0597203,-0.0591821,-0.0585694,-0.057883,-0.057124,-0.0562937,-0.0553936,-0.0544257,-0.0533918,-0.0522945,-0.0511361,-0.0499195,-0.0486476,-0.0473238,-0.0459515,-0.0445344,-0.0430763,-0.0415814,-0.0400539,-0.0384983,-0.0369191,-0.0353209,-0.0337087,-0.0320873,-0.0304617,-0.0288369,-0.0272179,-0.0256098,-0.0240176,-0.0224461,-0.0209003,-0.0193849,-0.0179045,-0.0164636,-0.0150663,-0.0137167,-0.0124186,-0.0111755,-0.00999056,-0.00886661,-0.00780622,-0.00681152,-0.00588429,-0.00502589,-0.00423728,-0.003519,-0.00287113,-0.00229336,-0.00178493,-0.00134469,-0.000971065,-0.000662135,-0.000415632,-0.000229008,-9.94859e-05,-2.41426e-05,0
0,-5.42775e-05,-0.000211846,-0.000467832,-0.000817686,-0.00125712,-0.00178205,-0.00238855,-0.00307281,-0.00383109,-0.00465972,-0.00555506,-0.00651353,-0.00753152,-0.00860548,-0.00973185,-0.0109071,-0.0121277,-0.0133902,-0.0146911,-0.0160269,-0.0173944,-0.01879,-0.0202105,-0.0216525,-0.023113,-0.0245886,-0.0260763,-0.0275729,-0.0290755,-0.0305809,-0.0320864,-0.0335889,-0.0350855,-0.0365736,-0.0380502,-0.0395126,-0.0409581,-0.042384,-0.0437876,-0.0451662,-0.0465173,-0.0478382,-0.0491264,-0.0503794,-0.0515945,-0.0527692,-0.0539012,-0.054988,-0.0560271,-0.0570162,-0.0579529,-0.058835,-0.0596602,-0.0604264,-0.0611314,-0.0617732,-0.0623499,-0.0628595,-0.0633004,-0.0636707,-0.0639691,-0.0641941,-0.0643443,-0.0644187,-0.0644163,-0.0643363,-0.0641779,-0.0639409,-0.0636248,-0.0632297,-0.0627557,-0.0622032,-0.0615728,-0.0608654,-0.0600819,-0.0592239,-0.0582927,-0.0572904,-0.0562188,-0.0550805,-0.053878,-0.052614,-0.0512918,-0.0499147,-0.0484861,-0.04701,-0.0454902,-0.0439311,-0.042337,-0.0407125,-0.0390623,-0.0373914,-0.0357046,-0.0340071,-0.0323041,-0.0306008,-0.0289024,-0.0272142,-0.0255413,-0.0238891,-0.0222625,-0.0206666,-0.0191062,-0.0175859,-0.0161102,-0.0146835,-0.0133096,-0.0119924,-0.0107351,-0.00954098,-0.00841269,-0.00735261,-0.00636272,-0.00544457,-0.00459934,-0.00382774,-0.00313007,-0.00250622,-0.00195562,-0.00147732,-0.00106997,-0.000731848,-0.000460923,-0.000254875,-0.000111168,-2.71211e-05,0
0,-5.80836e-05,-0.00022647,-0.000499686,-0.000872596,-0.00134035,-0.00189832,-0.00254209,-0.00326738,-0.00407002,-0.00494597,-0.00589123,-0.00690189,-0.00797409,-0.00910399,-0.0102878,-0.0115219,-0.0128024,-0.0141258,-0.0154884,-0.0168867,-0.0183171,-0.0197761,-0.0212605,-0.0227667,-0.0242914,-0.0258314,-0.0273836,-0.0289446,-0.0305114,-0.0320809,-0.0336501,-0.035216,-0.0367758,-0.0383264,-0.039865,-0.0413888,-0.0428951,-0.0443809,-0.0458436,-0.0472805,-0.0486888,-0.0500659,-0.0514092,-0.052716,-0.0539837,-0.0552097,-0.0563914,-0.0575264,-0.0586122,-0.0596462,-0.0606262,-0.0615496,-0.0624142,-0.0632178,-0.063958,-0.0646329,-0.0652404,-0.0657785,-0.0662453,-0.0666392,-0.0669584,-0.0672016,-0.0673673,-0.0674543,-0.0674615,-0.0673882,-0.0672335,-0.066997,-0.0666783,-0.0662774,-0.0657943,-0.0652294,-0.0645832,-0.0638567,-0.0630508,-0.0621668,-0.0612064,-0.0601714,-0.0590639,-0.0578862,-0.056641,-0.0553312,-0.0539599,-0.0525305,-0.0510468,-0.0495125,-0.0479318,-0.0463091,-0.0446489,-0.0429558,-0.0412349,-0.0394911,-0.0377297,-0.0359558,-0.034175,-0.0323926,-0.030614,-0.0288449,-0.0270906,-0.0253565,-0.023648,-0.0219703,-0.0203285,-0.0187275,-0.017172,-0.0156666,-0.0142155,-0.0128226,-0.0114916,-0.0102258,-0.00902817,-0.00790134,-0.00684749,-0.00586839,-0.00496543,-0.00413953,-0.0033912,-0.00272052,-0.00212716,-0.00161034,-0.00116894,-0.000801439,-0.00050601,-0.000280545,-0.000122718,-3.00511e-05,0
0,-6.17955e-05,-0.000240754,-0.000530836,-0.000926349,-0.0014219,-0.00201237,-0.00269283,-0.00345856,-0.00430499,-0.00522767,-0.00622226,-0.00728455,-0.00841037,-0.00959564,-0.0108364,-0.0121286,-0.0134685,-0.0148521,-0.0162758,-0.0177359,-0.0192287,-0.0207505,-0.022298,-0.0238676,-0.025456,-0.0270597,-0.0286755,-0.0303001,-0.0319305,-0.0335633,-0.0351956,-0.0368243,-0.0384464,-0.040059,-0.041659,-0.0432437,-0.0448101,-0.0463554,-0.0478769,-0.0493716,-0.050837,-0.0522701,-0.0536683,-0.0550289,-0.0563492,-0.0576265,-0.0588583,-0.0600419,-0.0611748,-0.0622543,-0.0632781,-0.0642436,-0.0651485,-0.0659903,-0.066767,-0.0674761,-0.0681156,-0.0686835,-0.0691778,-0.0695967,-0.0699385,-0.0702015,-0.0703844,-0.0704859,-0.0705047,-0.07044,-0.070291,-0.070057,-0.0697378,-0.0693331,-0.0688429,-0.0682677,-0.0676078,-0.0668641,-0.0660377,-0.0651298,-0.0641419,-0.063076,-0.0619341,-0.0607186,-0.0594322,-0.0580778,-0.0566586,-0.0551781,-0.0536401,-0.0520485,-0.0504075,-0.0487217,-0.0469956,-0.0452342,-0.0434425,-0.0416257,-0.0397892,-0.0379386,-0.0360792,-0.0342169,-0.0323573,-0.0305062,-0.0286692,-0.0268519,-0.0250601,-0.0232991,-0.0215744,-0.019891,-0.0182541,-0.0166683,-0.0151382,-0.0136679,-0.0122614,-0.0109224,-0.00965385,-0.00845876,-0.00733952,-0.00629814,-0.00533622,-0.00445492,-0.00365498,-0.00293667,-0.00229987,-0.00174402,-0.00126818,-0.000871054,-0.000550994,-0.000306082,-0.000134169,-3.29422e-05,0