-0,-0,-0,-0,-0,-0,-0,-0,-0,-0,-0,-0,-0,-0,-0,-0,-0,-0,-0,-0,-0,-0,-0,-0,-0,-0,-0,-0,-0,-0,-0,-0,-0,-0,-0,-0,-0,-0,-0,-0,-0,-0,-0,-0,-0,-0,-0,-0,-0,-0,-0,-0,-0,-0,-0,-0,-0,-0,-0,-0,-0,-0,-0,-0,-0,-0,-0,-0,-0,-0,-0,-0,-0,-0,-0,-0,-0,-0,-0,-0,-0,-0,-0,-0,-0,-0,-0,-0,-0,-0,-0,-0,-0,-0,-0,-0,-0,-0,-0,-0,-0,-0,-0,-0,-0,-0,-0,-0,-0,-0,-0,-0,-0,-0,-0,-0,-0,-0,-0,-0,-0,-0,-0,-0,-0,-0,-0,-0
-0,-5.3951e-06,-8.2898e-06,-8.16668e-06,-5.97375e-06,-2.54556e-06,1.56138e-06,5.9968e-06,1.05408e-05,1.50538e-05,1.9446e-05,2.366e-05,2.76593e-05,3.1422e-05,3.4936e-05,3.81959e-05,4.12016e-05,4.39561e-05,4.64652e-05,4.87361e-05,5.07771e-05,5.25973e-05,5.4206e-05,5.56128e-05,5.68269e-05,5.78575e-05,5.87132e-05,5.94023e-05,5.99326e-05,6.03111e-05,6.05445e-05,6.06386e-05,6.05989e-05,6.04301e-05,6.01362e-05,5.97209e-05,5.91872e-05,5.85377e-05,5.77743e-05,5.68988e-05,5.59124e-05,5.4816e-05,5.36102e-05,5.22956e-05,5.08722e-05,4.93404e-05,4.77e-05,4.59513e-05,4.40942e-05,4.21291e-05,4.00563e-05,3.78764e-05,3.55901e-05,3.31988e-05,3.0704e-05,2.81075e-05,2.54119e-05,2.26199e-05,1.9735e-05,1.67613e-05,1.37033e-05,1.05663e-05,7.35596e-06,4.07896e-06,7.42415e-07,-2.64583e-06,-6.07727e-06,-9.54276e-06,-1.30325e-05,-1.6536e-05,-2.00424e-05,-2.35399e-05,-2.70166e-05,-3.046e-05,-3.38569e-05,-3.71941e-05,-4.04581e-05,-4.36349e-05,-4.67107e-05,-4.96715e-05,-5.25032e-05,-5.5192e-05,-5.77244e-05,-6.0087e-05,-6.22669e-05,-6.42516e-05,-6.60295e-05,-6.75893e-05,-6.89208e-05,-7.00144e-05,-7.08618e-05,-7.14553e-05,-7.17885e-05,-7.18564e-05,-7.16548e-05,-7.1181e-05,-7.04336e-05,-6.94126e-05,-6.81191e-05,-6.6556e-05,-6.47274e-05,-6.26387e-05,-6.02969e-05,-5.77104e-05,-5.4889e-05,-5.18442e-05,-4.85885e-05,-4.51366e-05,-4.15043e-05,-3.77096e-05,-3.37723e-05,-2.97146e-05,-2.55614e-05,-2.13409e-05,-1.70858e-05,-1.2834e-05,-8.63109e-06,-4.53239e-06,-6.0729e-07,3.05506e-06,6.33681e-06,9.07787e-06,1.10557e-05,1.19587e-05,1.13658e-05,8.80597e-06,4.2109e-06,-0
-0,-1.63981e-05,-2.27529e-05,-2.0639e-05,-1.24696e-05,-3.41782e-07,1.41879e-05,3.00284e-05,4.64301e-05,6.28804e-05,7.90294e-05,9.46396e-05,0.000109552,0.000123663,0.000136908,0.000149252,0.00016068,0.000171193,0.000180803,0.000189528,0.000197394,0.000204429,0.000210664,0.00021613,0.000220859,0.000224883,0.000228233,0.000230938,0.000233025,0.000234522,0.000235451,0.000235834,0.000235692,0.000235042,0.0002339,0.000232279,0.00023019,0.000227645,0.000224651,0.000221214,0.000217341,0.000213035,0.000208299,0.000203135,0.000197546,0.000191533,0.000185096,0.000178237,0.000170957,0.000163259,0.000155143,0.000146614,0.000137675,0.000128333,0.000118593,0.000108465,9.79581e-05,8.70843e-05,7.58578e-05,6.42946e-05,5.2413e-05,4.02337e-05,2.77797e-05,1.50766e-05,2.15237e-06,-1.09626e-05,-2.42353e-05,-3.76305e-05,-5.11102e-05,-6.46345e-05,-7.81611e-05,-9.16458e-05,-0.000105042,-0.000118303,-0.000131378,-0.000144217,-0.000156768,-0.000168979,-0.000180797,-0.000192168,-0.000203041,-0.000213363,-0.000223082,-0.000232148,-0.000240512,-0.000248129,-0.000254952,-0.000260942,-0.000266058,-0.000270265,-0.000273532,-0.00027583,-0.000277135,-0.000277429,-0.000276696,-0.000274927,-0.000272116,-0.000268264,-0.000263377,-0.000257464,-0.000250544,-0.000242637,-0.00023377,-0.000223977,-0.000213297,-0.000201774,-0.000189459,-0.000176408,-0.000162686,-0.000148363,-0.000133518,-0.000118241,-0.00010263,-8.67982e-05,-7.08761e-05,-5.50141e-05,-3.93906e-05,-2.422e-05,-9.76537e-06,3.64504e-06,1.55939e-05,2.55436e-05,3.27989e-05,3.64734e-05,3.55047e-05,2.88466e-05,1.61913e-05,-0
-0,-2.81909e-05,-3.63923e-05,-2.93438e-05,-1.13248e-05,1.41496e-05,4.43792e-05,7.73669e-05,0.000111666,0.00014624,0.00018035,0.000213476,0.000245258,0.000275448,0.000303886,0.000330475,0.000355165,0.000377939,0.000398807,0.0004178,0.000434959,0.000450337,0.00046399,0.000475982,0.000486376,0.000495234,0.000502619,0.000508592,0.000513209,0.000516524,0.000518588,0.000519446,0.00051914,0.000517709,0.000515184,0.000511596,0.000506971,0.000501329,0.000494689,0.000487066,0.000478473,0.000468918,0.000458412,0.000446958,0.000434562,0.000421229,0.000406962,0.000391764,0.000375641,0.000358596,0.000340638,0.000321774,0.000302015,0.000281375,0.000259869,0.000237517,0.000214343,0.000190374,0.000165642,0.000140182,0.000114037,8.72521e-05,5.98785e-05,3.19728e-05,3.59655e-06,-2.51831e-05,-5.42938e-05,-8.36582e-05,-0.000113194,-0.000142813,-0.000172423,-0.00020193,-0.00023123,-0.000260222,-0.000288798,-0.000316849,-0.000344261,-0.000370923,-0.00039672,-0.000421537,-0.000445261,-0.000467779,-0.00048898,-0.000508756,-0.000527002,-0.000543619,-0.00055851,-0.000571587,-0.000582765,-0.000591969,-0.00059913,-0.000604189,-0.000607094,-0.000607806,-0.000606292,-0.000602531,-0.000596515,-0.000588244,-0.000577732,-0.000565003,-0.000550093,-0.000533051,-0.000513938,-0.000492827,-0.000469804,-0.000444968,-0.000418431,-0.000390321,-0.000360779,-0.000329962,-0.000298048,-0.000265235,-0.000231743,-0.000197824,-0.000163765,-0.000129897,-9.6609e-05,-6.43608e-05,-3.37073e-05,-5.32499e-06,1.99517e-05,4.10881e-05,5.68061e-05,6.55603e-05,6.55852e-05,5.5124e-05,3.30378e-05,-0
-0,-3.71703e-05,-4.40349e-05,-2.83837e-05,3.53407e-06,4.6742e-05,9.73669e-05,0.000152458,0.0002098,0.000267753,0.000325112,0.000380999,0.000434788,0.000486038,0.000534451,0.000579835,0.000622079,0.000661134,0.000696997,0.0007297,0.000759299,0.000785871,0.000809501,0.000830285,0.000848324,0.000863717,0.000876565,0.000886966,0.000895013,0.000900794,0.000904394,0.000905888,0.000905347,0.000902834,0.000898405,0.00089211,0.000883993,0.000874092,0.000862439,0.00084906,0.000833977,0.000817209,0.000798771,0.000778675,0.000756931,0.000733547,0.000708533,0.000681897,0.000653649,0.000623799,0.000592362,0.000559354,0.000524796,0.000488713,0.000451135,0.000412098,0.000371646,0.000329827,0.000286698,0.000242324,0.000196776,0.000150138,0.000102497,5.39539e-05,4.61534e-06,-4.54018e-05,-9.59718e-05,-0.00014696,-0.000198225,-0.000249613,-0.000300968,-0.000352121,-0.000402902,-0.00045313,-0.000502623,-0.000551191,-0.000598642,-0.000644783,-0.000689418,-0.000732351,-0.000773387,-0.000812334,-0.000849002,-0.000883206,-0.000914768,-0.000943517,-0.00096929,-0.000991934,-0.00101131,-0.00102728,-0.00103974,-0.00104858,-0.00105372,-0.00105508,-0.00105262,-0.0010463,-0.0010361,-0.00102204,-0.00100412,-0.000982405,-0.000956947,-0.000927834,-0.000895174,-0.000859095,-0.000819747,-0.000777305,-0.000731964,-0.000683949,-0.000633506,-0.000580914,-0.000526482,-0.000470557,-0.000413525,-0.000355825,-0.000297953,-0.00024048,-0.000184066,-0.000129485,-7.7656e-05,-2.96734e-05,1.31436e-05,4.92057e-05,7.66093e-05,9.31175e-05,9.6204e-05,8.32199e-05,5.17374e-05,-0
-0,-4.08913e-05,-4.19301e-05,-1.33802e-05,3.66996e-05,0.000101937,0.000177323,0.000258968,0.000343879,0.000429783,0.000514965,0.000598151,0.000678405,0.000755052,0.000827622,0.0008958,0.000959392,0.0010183,0.00107249,0.00112199,0.00116686,0.0012072,0.00124312,0.00127476,0.00130225,0.00132573,0.00134534,0.00136122,0.00137352,0.00138235,0.00138784,0.00139009,0.00138922,0.00138532,0.00137847,0.00136874,0.0013562,0.00134091,0.00132292,0.00130226,0.00127898,0.0012531,0.00122465,0.00119365,0.00116011,0.00112405,0.00108549,0.00104444,0.00100092,0.00095495,0.000906555,0.000855762,0.000802606,0.000747128,0.000689378,0.000629413,0.000567301,0.00050312,0.000436958,0.000368917,0.000299108,0.000227659,0.000154707,8.04035e-05,4.91486e-06,-7.15806e-05,-0.000148891,-0.000226811,-0.000305123,-0.000383597,-0.000461993,-0.000540057,-0.000617527,-0.000694134,-0.000769598,-0.000843634,-0.000915954,-0.000986263,-0.00105427,-0.00111967,-0.00118218,-0.0012415,-0.00129735,-0.00134945,-0.00139754,-0.00144136,-0.00148065,-0.0015152,-0.00154479,-0.00156922,-0.00158833,-0.00160196,-0.00160997,-0.00161228,-0.00160879,-0.00159947,-0.00158428,-0.00156324,-0.00153638,-0.00150378,-0.00146552,-0.00142175,-0.00137263,-0.00131835,-0.00125915,-0.00119529,-0.00112708,-0.00105486,-0.000979016,-0.000899966,-0.00081819,-0.000734218,-0.000648642,-0.000562127,-0.000475427,-0.000389396,-0.000305019,-0.000223431,-0.000145961,-7.41672e-05,-9.88791e-06,4.47076e-05,8.70736e-05,0.000114261,0.000122929,0.000109412,6.98129e-05,-0
-0,-3.77837e-05,-2.7468e-05,1.88547e-05,9.16134e-05,0.00018319,0.000287533,0.000399864,0.000516443,0.000634368,0.000751409,0.000865873,0.000976492,0.00108233,0.00118273,0.00127722,0.0013655,0.00144742,0.00152289,0.00159193,0.00165461,0.00171103,0.00176132,0.00180566,0.00184422,0.00187718,0.00190473,0.00192705,0.00194432,0.00195671,0.00196438,0.00196748,0.00196617,0.00196055,0.00195075,0.00193687,0.001919,0.00189722,0.0018716,0.00184219,0.00180906,0.00177224,0.00173176,0.00168766,0.00163998,0.00158872,0.00153392,0.0014756,0.0014138,0.00134854,0.00127985,0.0012078,0.00113242,0.00105378,0.000971948,0.000887015,0.000799078,0.000708249,0.000614656,0.000518443,0.000419773,0.000318823,0.000215791,0.000110892,4.36006e-06,-0.000103553,-0.000212577,-0.000322422,-0.000432784,-0.00054334,-0.00065375,-0.000763663,-0.000872712,-0.000980517,-0.00108669,-0.00119084,-0.00129255,-0.00139142,-0.00148703,-0.00157899,-0.00166686,-0.00175027,-0.0018288,-0.00190207,-0.00196971,-0.00203136,-0.00208668,-0.00213535,-0.00217709,-0.00221161,-0.00223868,-0.00225809,-0.00226967,-0.00227326,-0.00226876,-0.00225611,-0.00223528,-0.00220628,-0.00216916,-0.00212403,-0.00207101,-0.00201031,-0.00194216,-0.00186683,-0.00178465,-0.00169601,-0.00160132,-0.00150108,-0.00139582,-0.00128616,-0.00117275,-0.00105634,-0.000937768,-0.000817959,-0.000697957,-0.000578942,-0.000462254,-0.000349429,-0.000242235,-0.000142717,-5.32498e-05,2.34079e-05,8.40634e-05,0.000125046,0.000142176,0.000130736,8.54008e-05,-0
-0,-2.68848e-05,1.08893e-06,7.05637e-05,0.000170789,0.0002931,0.000430527,0.000577488,0.000729549,0.00088321,0.00103574,0.00118503,0.00132946,0.00146785,0.0015993,0.0017232,0.00183913,0.00194684,0.00204622,0.00213724,0.00221997,0.00229451,0.00236103,0.00241973,0.0024708,0.00251449,0.00255101,0.00258059,0.00260346,0.00261984,0.00262993,0.00263393,0.002632,0.00262433,0.00261105,0.0025923,0.0025682,0.00253885,0.00250435,0.00246477,0.00242019,0.00237065,0.00231622,0.00225693,0.00219282,0.00212394,0.00205032,0.001972,0.00188902,0.00180143,0.00170928,0.00161263,0.00151157,0.00140617,0.00129654,0.00118279,0.00106507,0.000943515,0.000818313,0.000689655,0.000557759,0.000422867,0.000285241,0.000145171,2.96875e-06,-0.000141029,-0.000286462,-0.000432946,-0.000580075,-0.00072742,-0.000874534,-0.00102095,-0.00116618,-0.00130972,-0.00145107,-0.00158969,-0.00172506,-0.00185662,-0.00198385,-0.0021062,-0.00222314,-0.00233412,-0.00243863,-0.00253616,-0.00262622,-0.00270835,-0.00278209,-0.00284702,-0.00290277,-0.00294897,-0.00298532,-0.00301153,-0.00302737,-0.00303267,-0.00302727,-0.0030111,-0.00298412,-0.00294635,-0.00289786,-0.00283878,-0.00276931,-0.0026897,-0.00260026,-0.00250136,-0.00239345,-0.00227702,-0.00215266,-0.002021,-0.00188277,-0.00173878,-0.0015899,-0.00143714,-0.00128158,-0.00112445,-0.000967115,-0.000811104,-0.000658144,-0.000510191,-0.00036947,-0.000238528,-0.000120282,-1.80756e-05,6.42544e-05,0.000122323,0.000151124,0.000144937,9.71618e-05,-0
-0,-7.64073e-06,4.48358e-05,0.000143253,0.000275994,0.000433557,0.000608197,0.000793635,0.00098481,0.00117767,0.00136902,0.00155635,0.0017377,0.00191162,0.00207699,0.00223304,0.00237922,0.0025152,0.0026408,0.00275595,0.00286071,0.0029552,0.00303959,0.00311409,0.00317896,0.00323446,0.00328085,0.00331842,0.00334744,0.00336816,0.00338084,0.00338571,0.003383,0.0033729,0.0033556,0.00333127,0.00330005,0.00326208,0.00321748,0.00316633,0.00310875,0.00304479,0.00297452,0.00289801,0.00281532,0.00272649,0.00263157,0.00253062,0.0024237,0.00231087,0.0021922,0.00206779,0.00193773,0.00180215,0.00166116,0.00151494,0.00136365,0.00120751,0.00104672,0.000881559,0.000712295,0.000539243,0.000362742,0.000183163,9.06624e-07,-0.000183596,-0.000369884,-0.000557467,-0.000745828,-0.000934419,-0.00112267,-0.00130999,-0.00149576,-0.00167933,-0.00186007,-0.00203731,-0.00221036,-0.00237855,-0.00254119,-0.00269759,-0.00284708,-0.00298897,-0.00312261,-0.00324736,-0.0033626,-0.00346774,-0.0035622,-0.00364547,-0.00371706,-0.00377651,-0.00382344,-0.00385749,-0.00387838,-0.00388586,-0.00387978,-0.00386001,-0.00382652,-0.00377933,-0.00371855,-0.00364434,-0.00355696,-0.00345671,-0.00334401,-0.00321933,-0.00308324,-0.00293638,-0.00277948,-0.00261338,-0.00243899,-0.00225734,-0.00206955,-0.00187689,-0.00168074,-0.00148263,-0.00128429,-0.0010876,-0.000894701,-0.000707983,-0.000530142,-0.000364224,-0.000213688,-8.24567e-05,2.50067e-05,0.000103627,0.00014762,0.000150358,0.000104165,-0
-0,2.02315e-05,0.000104407,0.000237871,0.000408403,0.00060587,0.000821901,0.00104962,0.00128344,0.00151881,0.00175209,0.00198042,0.00220152,0.00241366,0.00261553,0.00280618,0.00298493,0.00315136,0.00330521,0.0034464,0.00357495,0.00369097,0.00379466,0.00388625,0.00396603,0.00403429,0.00409134,0.00413751,0.00417311,0.00419845,0.00421382,0.00421951,0.00421578,0.00420286,0.00418099,0.00415036,0.00411115,0.00406353,0.00400763,0.00394358,0.00387149,0.00379145,0.00370356,0.00360788,0.0035045,0.00339348,0.00327489,0.00314879,0.00301528,0.00287443,0.00272634,0.00257113,0.00240893,0.00223988,0.00206416,0.00188197,0.00169352,0.00149909,0.00129894,0.00109341,0.000882835,0.000667614,0.000448168,0.000224959,-1.51687e-06,-0.000230723,-0.00046209,-0.000695009,-0.000928841,-0.00116291,-0.00139651,-0.00162892,-0.00185936,-0.00208706,-0.00231121,-0.00253099,-0.00274558,-0.00295413,-0.0031558,-0.00334975,-0.00353513,-0.00371113,-0.00387694,-0.00403176,-0.00417484,-0.00430545,-0.0044229,-0.00452653,-0.00461576,-0.00469004,-0.00474888,-0.00479185,-0.0048186,-0.00482885,-0.00482238,-0.00479906,-0.00475884,-0.00470177,-0.00462795,-0.00453762,-0.00443107,-0.0043087,-0.00417102,-0.00401861,-0.00385218,-0.00367252,-0.00348055,-0.00327728,-0.00306386,-0.00284154,-0.00261173,-0.00237595,-0.0021359,-0.00189346,-0.0016507,-0.00140991,-0.00117363,-0.000944701,-0.000726286,-0.000521936,-0.00033564,-0.000171886,-3.57375e-05,6.70805e-05,0.000130072,0.000145821,0.000105783,-0
-0,5.68358e-05,0.000180114,0.000354946,0.000568734,0.000810884,0.00107255,0.00134637,0.00162629,0.00190736,0.00218556,0.00245766,0.00272112,0.00297396,0.00321466,0.00344211,0.0036555,0.00385432,0.00403825,0.00420715,0.00436103,0.00449999,0.00462424,0.00473403,0.00482967,0.0049115,0.00497987,0.00503514,0.00507768,0.00510784,0.00512595,0.00513235,0.00512734,0.0051112,0.00508419,0.00504654,0.00499847,0.00494018,0.00487182,0.00479355,0.00470551,0.00460781,0.00450055,0.00438384,0.00425776,0.0041224,0.00397785,0.00382421,0.00366157,0.00349004,0.00330975,0.00312084,0.00292347,0.00271784,0.00250415,0.00228265,0.00205363,0.00181739,0.00157428,0.00132469,0.00106905,0.000807844,0.000541577,0.00027081,-3.8518e-06,-0.000281762,-0.000562231,-0.000844524,-0.00112787,-0.00141145,-0.00169443,-0.00197591,-0.00225498,-0.0025307,-0.00280211,-0.00306822,-0.00332803,-0.00358053,-0.00382471,-0.00405957,-0.00428409,-0.00449729,-0.00469819,-0.00488586,-0.00505938,-0.00521788,-0.00536053,-0.00548655,-0.00559523,-0.00568592,-0.00575803,-0.00581105,-0.00584456,-0.00585822,-0.00585177,-0.00582507,-0.00577805,-0.00571075,-0.00562334,-0.00551607,-0.00538931,-0.00524355,-0.00507938,-0.00489753,-0.00469885,-0.00448429,-0.00425495,-0.00401207,-0.00375701,-0.00349129,-0.00321658,-0.00293472,-0.00264773,-0.00235783,-0.00206747,-0.00177933,-0.00149639,-0.00122192,-0.000959574,-0.000713385,-0.000487863,-0.00028804,-0.000119548,1.12882e-05,9.73399e-05,0.000130525,0.000101616,-0
-0,0.000102159,0.000272039,0.000494704,0.000757348,0.00104908,0.00136068,0.00168444,0.00201393,0.00234383,0.00266981,0.00298834,0.00329662,0.00359245,0.00387412,0.00414037,0.00439028,0.00462323,0.00483885,0.00503694,0.0052175,0.00538063,0.00552653,0.00565549,0.00576782,0.00586391,0.00594415,0.00600894,0.00605869,0.00609379,0.00611464,0.0061216,0.00611501,0.0060952,0.00606247,0.00601709,0.00595931,0.00588935,0.00580741,0.00571365,0.00560825,0.00549134,0.00536305,0.0052235,0.00507279,0.00491105,0.00473836,0.00455486,0.00436067,0.00415592,0.00394077,0.00371539,0.00347998,0.00323478,0.00298004,0.00271606,0.00244318,0.00216178,0.00187226,0.00157511,0.00127083,0.00095999,0.0006432,0.000321128,-5.51027e-06,-0.000335947,-0.000669364,-0.00100489,-0.00134162,-0.00167858,-0.00201478,-0.00234917,-0.00268067,-0.00300817,-0.00333053,-0.0036466,-0.00395519,-0.00425512,-0.00454519,-0.00482422,-0.00509102,-0.00534443,-0.00558331,-0.00580655,-0.00601307,-0.00620185,-0.00637191,-0.00652234,-0.0066523,-0.00676102,-0.00684781,-0.00691208,-0.00695332,-0.00697113,-0.00696522,-0.00693541,-0.00688163,-0.00680394,-0.00670252,-0.00657767,-0.00642983,-0.00625959,-0.00606764,-0.00585485,-0.0056222,-0.00537085,-0.00510209,-0.00481736,-0.00451828,-0.00420663,-0.00388438,-0.00355368,-0.00321688,-0.00287657,-0.00253558,-0.00219699,-0.00186421,-0.00154097,-0.00123137,-0.000939951,-0.000671711,-0.000432203,-0.000227593,-6.475e-05,4.86425e-05,0.000103951,9.14239e-05,-0
-0,0.000156112,0.000380114,0.000657152,0.000974348,0.00132063,0.00168656,0.00206414,0.00244664,0.00282848,0.00320504,0.00357256,0.00392801,0.00426899,0.00459363,0.00490053,0.00518866,0.00545731,0.00570606,0.00593467,0.00614312,0.00633149,0.00649999,0.00664894,0.00677867,0.0068896,0.00698216,0.00705679,0.00711394,0.00715406,0.00717757,0.00718489,0.0071764,0.00715248,0.00711345,0.00705962,0.00699128,0.00690868,0.00681204,0.00670158,0.00657746,0.00643987,0.00628894,0.00612482,0.00594763,0.00575752,0.00555462,0.00533906,0.005111,0.00487059,0.00461804,0.00435355,0.00407735,0.00378974,0.003491,0.00318151,0.00286166,0.00253188,0.00219268,0.0018446,0.00148826,0.0011243,0.000753444,0.000376477,-5.76826e-06,-0.000392396,-0.000782452,-0.00117493,-0.00156875,-0.00196282,-0.00235595,-0.00274694,-0.00313453,-0.00351744,-0.00389434,-0.00426388,-0.00462471,-0.00497545,-0.0053147,-0.0056411,-0.00595327,-0.00624986,-0.00652955,-0.00679106,-0.00703312,-0.00725457,-0.00745426,-0.00763115,-0.00778424,-0.00791266,-0.0080156,-0.00809238,-0.0081424,-0.00816522,-0.00816047,-0.00812796,-0.0080676,-0.00797947,-0.00786377,-0.00772086,-0.00755124,-0.0073556,-0.00713475,-0.00688969,-0.00662157,-0.00633172,-0.00602164,-0.00569302,-0.00534772,-0.0049878,-0.00461552,-0.00423337,-0.00384405,-0.0034505,-0.00305595,-0.0026639,-0.00227818,-0.00190296,-0.00154281,-0.00120274,-0.000888233,-0.000605339,-0.000360716,-0.000161724,-1.65257e-05,6.57934e-05,7.50861e-05,-0
-0,0.000218558,0.000504164,0.000842138,0.00121964,0.00162552,0.00205021,0.00248551,0.00292451,0.00336138,0.00379131,0.00421031,0.00461519,0.00500338,0.00537287,0.00572213,0.00605005,0.00635585,0.00663903,0.00689935,0.00713674,0.00735129,0.00754324,0.00771288,0.00786061,0.00798686,0.0080921,0.00817682,0.0082415,0.00828664,0.00831271,0.00832016,0.00830942,0.00828091,0.00823498,0.008172,0.00809227,0.00799608,0.00788369,0.00775532,0.00761118,0.00745148,0.00727637,0.00708602,0.00688059,0.00666024,0.00642512,0.00617539,0.00591124,0.00563287,0.00534049,0.00503436,0.00471476,0.00438201,0.00403648,0.00367857,0.00330875,0.00292754,0.00253552,0.0021333,0.00172161,0.00130119,0.00087288,0.000437573,-3.76682e-06,-0.000450109,-0.000900357,-0.00135335,-0.00180786,-0.00226262,-0.00271628,-0.00316745,-0.00361469,-0.00405654,-0.00449146,-0.00491794,-0.00533439,-0.00573924,-0.00613092,-0.00650783,-0.00686842,-0.00721113,-0.00753445,-0.00783691,-0.00811708,-0.0083736,-0.00860518,-0.0088106,-0.00898875,-0.0091386,-0.00925923,-0.00934986,-0.00940982,-0.00943857,-0.00943572,-0.00940103,-0.00933441,-0.00923592,-0.00910582,-0.0089445,-0.00875256,-0.00853076,-0.00828004,-0.00800154,-0.00769658,-0.00736668,-0.00701357,-0.00663915,-0.00624557,-0.00583516,-0.00541051,-0.00497442,-0.00452995,-0.00408042,-0.00362946,-0.00318098,-0.00273922,-0.00230883,-0.0018948,-0.00150262,-0.00113824,-0.000808161,-0.000519508,-0.000280083,-9.84634e-05,1.58992e-05,5.25636e-05,-0
-0,0.000289331,0.000643946,0.00104941,0.00149299,0.00196356,0.00245148,0.00294846,0.00344743,0.00394243,0.00442848,0.00490144,0.00535796,0.00579535,0.00621148,0.00660473,0.0069739,0.00731817,0.00763698,0.00793007,0.00819736,0.00843894,0.00865504,0.008846,0.00901223,0.00915419,0.0092724,0.00936738,0.00943967,0.00948978,0.00951825,0.00952558,0.00951222,0.00947863,0.00942523,0.00935239,0.00926045,0.00914975,0.00902056,0.00887314,0.00870773,0.00852455,0.00832378,0.00810563,0.00787026,0.00761786,0.00734862,0.00706272,0.00676038,0.00644182,0.00610731,0.00575714,0.00539163,0.00501115,0.00461613,0.00420704,0.00378441,0.00334884,0.00290097,0.00244155,0.00197136,0.00149128,0.00100224,0.000505282,1.48726e-06,-0.000507969,-0.00102184,-0.00153881,-0.00205749,-0.00257643,-0.0030941,-0.00360894,-0.00411931,-0.00462354,-0.00511992,-0.0056067,-0.0060821,-0.00654435,-0.00699165,-0.0074222,-0.00783424,-0.00822601,-0.00859579,-0.00894192,-0.00926278,-0.00955682,-0.00982258,-0.0100587,-0.0102639,-0.0104369,-0.0105769,-0.0106828,-0.010754,-0.0107897,-0.0107896,-0.0107534,-0.0106809,-0.0105723,-0.0104278,-0.0102479,-0.0100332,-0.00978461,-0.00950319,-0.00919022,-0.00884719,-0.00847584,-0.00807808,-0.00765609,-0.00721227,-0.00674927,-0.00626997,-0.00577752,-0.00527535,-0.00476716,-0.00425696,-0.00374908,-0.00324821,-0.0027594,-0.00228813,-0.00184031,-0.00142235,-0.00104119,-0.000704371,-0.000420103,-0.00019732,-4.57751e-05,2.38734e-05,-0
-0,0.000368249,0.000799176,0.00127863,0.00179406,0.00233441,0.00289007,0.00345271,0.00401517,0.00457141,0.00511632,0.00564568,0.00615602,0.00664454,0.00710905,0.00754784,0.00795966,0.00834363,0.00869918,0.00902602,0.00932405,0.0095934,0.0098343,0.0100471,0.0102323,0.0103903,0.0105217,0.010627,0.0107069,0.0107619,0.0107926,0.0107995,0.0107832,0.010744,0.0106826,0.0105992,0.0104942,0.0103681,0.0102211,0.0100536,0.00986568,0.00965771,0.00942988,0.0091824,0.00891549,0.00862933,0.00832416,0.00800017,0.00765763,0.00729679,0.00691794,0.00652143,0.00610762,0.00567694,0.00522988,0.00476696,0.00428879,0.00379604,0.00328946,0.00276987,0.00223816,0.00169533,0.00114243,0.000580617,1.11212e-05,-0.000564739,-0.00114556,-0.00172987,-0.0023161,-0.00290262,-0.00348772,-0.00406964,-0.00464654,-0.00521656,-0.00577776,-0.00632818,-0.00686584,-0.00738874,-0.00789485,-0.00838217,-0.0088487,-0.00929249,-0.00971159,-0.0101041,-0.0104683,-0.0108024,-0.0111047,-0.0113737,-0.0116079,-0.0118062,-0.0119672,-0.0120899,-0.0121736,-0.0122175,-0.0122211,-0.0121841,-0.0121064,-0.011988,-0.0118292,-0.0116306,-0.0113929,-0.011117,-0.0108042,-0.0104559,-0.0100737,-0.00965953,-0.00921563,-0.00874438,-0.00824846,-0.00773082,-0.00719466,-0.00664349,-0.00608109,-0.00551155,-0.00493929,-0.00436904,-0.00380593,-0.00325544,-0.00272348,-0.00221641,-0.00174106,-0.0013048,-0.00091557,-0.000581931,-0.00031314,-0.000119201,-1.09312e-05,-0
-0,0.000455125,0.000969546,0.00152943,0.00212245,0.0027377,0.00336561,0.00399789,0.00462738,0.00524797,0.0058545,0.00644269,0.007009,0.00755058,0.00806515,0.00855098,0.00900677,0.00943162,0.00982493,0.0101864,0.010516,0.0108138,0.01108,0.0113151,0.0115196,0.0116939,0.0118386,0.0119545,0.012042,0.0121018,0.0121345,0.0121407,0.0121209,0.0120757,0.0120056,0.011911,0.0117923,0.0116499,0.0114841,0.0112954,0.0110838,0.0108498,0.0105936,0.0103154,0.0100154,0.00969383,0.009351,0.00898712,0.00860246,0.00819733,0.00777206,0.00732702,0.00686265,0.00637941,0.00587785,0.00535857,0.00482225,0.00426964,0.00370158,0.00311898,0.00252286,0.0019143,0.0012945,0.00066474,2.63963e-05,-0.000619063,-0.00127008,-0.00192499,-0.00258207,-0.0032395,-0.00389538,-0.00454774,-0.00519455,-0.0058337,-0.00646307,-0.00708046,-0.00768367,-0.00827046,-0.00883858,-0.00938581,-0.00990992,-0.0104087,-0.01088,-0.0113218,-0.011732,-0.0121087,-0.01245,-0.0127542,-0.0130197,-0.013245,-0.0134289,-0.0135702,-0.0136679,-0.0137212,-0.0137296,-0.0136928,-0.0136104,-0.0134827,-0.01331,-0.0130927,-0.0128318,-0.0125283,-0.0121834,-0.0117989,-0.0113765,-0.0109184,-0.0104269,-0.00990477,-0.00935495,-0.00878067,-0.00818548,-0.00757324,-0.00694809,-0.00631451,-0.00567733,-0.0050417,-0.00441316,-0.00379763,-0.00320146,-0.00263142,-0.00209478,-0.00159929,-0.00115328,-0.000765637,-0.000445906,-0.000204305,-5.17766e-05,-0
-0,0.000549767,0.00115474,0.00180141,0.00247772,0.00317294,0.00387764,0.00458357,0.00528362,0.00597168,0.0066426,0.00729206,0.00791648,0.00851299,0.00907929,0.00961362,0.0101147,0.0105815,0.0110136,0.0114105,0.0117724,0.0120992,0.0123913,0.0126491,0.0128732,0.013064,0.0132222,0.0133485,0.0134436,0.013508,0.0135425,0.0135477,0.0135242,0.0134725,0.0133931,0.0132866,0.0131534,0.0129939,0.0128085,0.0125975,0.0123612,0.0121,0.0118141,0.0115038,0.0111692,0.0108108,0.0104286,0.0100231,0.00959456,0.00914324,0.00866956,0.00817392,0.00765682,0.00711877,0.00656039,0.00598233,0.00538537,0.00477032,0.00413813,0.0034898,0.00282645,0.0021493,0.00145966,0.000758957,4.87086e-05,-0.000669459,-0.00139382,-0.00212255,-0.00285373,-0.00358535,-0.0043153,-0.00504142,-0.00576145,-0.00647309,-0.00717395,-0.00786163,-0.00853369,-0.00918764,-0.00982102,-0.0104313,-0.0110161,-0.011573,-0.0120995,-0.0125934,-0.0130524,-0.0134743,-0.0138571,-0.014199,-0.014498,-0.0147526,-0.0149613,-0.0151229,-0.0152362,-0.0153004,-0.0153148,-0.0152791,-0.0151929,-0.0150565,-0.0148702,-0.0146345,-0.0143503,-0.0140188,-0.0136415,-0.01322,-0.0127565,-0.0122532,-0.0117128,-0.0111382,-0.0105327,-0.00989985,-0.00924347,-0.0085678,-0.00787735,-0.00717702,-0.00647201,-0.00576791,-0.00507068,-0.00438667,-0.00372265,-0.00308582,-0.00248386,-0.0019249,-0.00141762,-0.000971245,-0.000595564,-0.000300993,-9.85808e-05,-0
-0,0.000651991,0.00135442,0.00209416,0.0028594,0.00363965,0.00442564,0.00520923,0.00598339,0.00674207,0.00748014,0.00819329,0.00887797,0.00953129,0.010151,0.0107352,0.0112828,0.0117927,0.0122644,0.0126977,0.0130925,0.0134489,0.0137674,0.0140483,0.0142921,0.0144997,0.0146715,0.0148083,0.0149108,0.0149798,0.0150158,0.0150197,0.0149919,0.0149332,0.0148441,0.0147251,0.0145767,0.0143993,0.0141933,0.0139592,0.0136972,0.0134076,0.0130908,0.012747,0.0123766,0.0119798,0.0115568,0.0111081,0.0106339,0.0101345,0.00961056,0.00906236,0.00849047,0.00789548,0.00727805,0.00663891,0.00597891,0.00529896,0.00460008,0.00388339,0.00315012,0.0024016,0.00163928,0.000864719,7.95891e-05,-0.000714325,-0.00151513,-0.00232082,-0.00312928,-0.00393832,-0.00474562,-0.00554879,-0.00634537,-0.00713281,-0.00790851,-0.00866982,-0.00941404,-0.0101385,-0.0108404,-0.011517,-0.0121657,-0.0127837,-0.0133685,-0.0139175,-0.0144281,-0.0148981,-0.0153251,-0.0157071,-0.0160421,-0.0163282,-0.0165638,-0.0167476,-0.0168782,-0.0169548,-0.0169766,-0.0169432,-0.0168542,-0.0167098,-0.0165103,-0.0162564,-0.0159491,-0.0155895,-0.0151792,-0.0147202,-0.0142147,-0.0136652,-0.0130746,-0.012446,-0.011783,-0.0110896,-0.0103698,-0.00962833,-0.00887002,-0.00810014,-0.00732433,-0.00654859,-0.00577931,-0.00502327,-0.00428765,-0.00358009,-0.00290865,-0.00228185,-0.00170871,-0.00119876,-0.000762053,-0.00040917,-0.000151263,-0
-0,0.000761614,0.00156829,0.00240725,0.00326701,0.00413731,0.00500907,0.00587433,0.00672615,0.00755859,0.00836658,0.00914587,0.00989294,0.0106049,0.0112796,0.0119153,0.0125105,0.0130646,0.0135769,0.0140473,0.0144756,0.0148622,0.0152074,0.0155117,0.0157757,0.0160001,0.0161855,0.0163329,0.0164428,0.0165161,0.0165534,0.0165556,0.0165233,0.0164572,0.0163578,0.0162256,0.0160613,0.0158653,0.015638,0.0153797,0.015091,0.0147721,0.0144232,0.0140449,0.0136372,0.0132006,0.0127354,0.0122419,0.0117204,0.0111714,0.0105954,0.00999276,0.00936413,0.00871016,0.00803156,0.00732915,0.00660383,0.00585661,0.0050886,0.00430102,0.00349521,0.00267264,0.00183487,0.000983621,0.000120705,-0.000751928,-0.00163221,-0.00251795,-0.00340686,-0.00429651,-0.0051844,-0.00606791,-0.00694435,-0.00781094,-0.00866483,-0.00950313,-0.0103229,-0.0111211,-0.0118949,-0.0126412,-0.013357,-0.0140395,-0.0146856,-0.0152928,-0.0158581,-0.016379,-0.016853,-0.0172778,-0.0176512,-0.0179712,-0.018236,-0.018444,-0.0185939,-0.0186847,-0.0187153,-0.0186854,-0.0185947,-0.0184432,-0.0182312,-0.0179595,-0.0176291,-0.0172413,-0.0167978,-0.0163008,-0.0157524,-0.0151556,-0.0145135,-0.0138294,-0.0131072,-0.0123512,-0.0115659,-0.0107562,-0.00992733,-0.00908506,-0.00823539,-0.00738474,-0.00653994,-0.00570819,-0.0048971,-0.00411472,-0.00336951,-0.00267037,-0.00202667,-0.00144822,-0.00094532,-0.000528748,-0.000209749,-0
-0,0.000878461,0.00179603,0.00274028,0.00370006,0.00466538,0.00562738,0.00657828,0.00751132,0.00842066,0.00930135,0.0101492,0.0109608,0.0117334,0.0124647,0.0131531,0.0137973,0.0143966,0.0149504,0.0154586,0.0159212,0.0163384,0.0167108,0.0170388,0.0173231,0.0175645,0.0177636,0.0179214,0.0180386,0.0181161,0.0181546,0.0181548,0.0181176,0.0180436,0.0179334,0.0177876,0.0176067,0.0173913,0.0171419,0.0168588,0.0165424,0.0161931,0.0158112,0.0153971,0.0149511,0.0144734,0.0139646,0.0134248,0.0128546,0.0122543,0.0116245,0.0109657,0.0102785,0.00956364,0.00882187,0.00805408,0.00726126,0.0064445,0.005605,0.0047441,0.00386324,0.00296401,0.00204811,0.0011174,0.000173859,-0.00078041,-0.00174316,-0.00271201,-0.00368447,-0.00465793,-0.00562964,-0.00659678,-0.0075564,-0.0085055,-0.00944098,-0.0103597,-0.0112584,-0.0121339,-0.0129829,-0.0138022,-0.0145886,-0.0153388,-0.0160496,-0.0167181,-0.0173412,-0.0179161,-0.0184401,-0.0189105,-0.019325,-0.0196814,-0.0199778,-0.0202123,-0.0203835,-0.0204901,-0.0205313,-0.0205064,-0.0204151,-0.0202575,-0.0200338,-0.0197448,-0.0193916,-0.0189757,-0.0184987,-0.017963,-0.0173712,-0.0167261,-0.0160311,-0.01529,-0.0145069,-0.0136864,-0.0128332,-0.0119528,-0.0110507,-0.0101331,-0.00920639,-0.00827746,-0.00735354,-0.00644227,-0.00555169,-0.00469027,-0.00386686,-0.00309075,-0.00237164,-0.00171966,-0.00114534,-0.000659664,-0.000273981,-0