-0,-0.000782242,-0.00274071,-0.00499346,-0.00688939,-0.00802812,-0.00818253,-0.00723494,-0.00513616,-0.00188021,0.00251115,0.00799835,0.0145304,0.0220493,0.0304928,0.0397968,0.0498963,0.0607271,0.072226,0.0843315,0.096984,0.110126,0.123703,0.137663,0.151955,0.166531,0.181346,0.196357,0.211523,0.226803,0.242161,0.25756,0.272965,0.288344,0.303664,0.318893,0.334002,0.34896,0.363739,0.37831,0.392644,0.406713,0.42049,0.433947,0.447056,0.45979,0.472121,0.484022,0.495464,0.506422,0.516866,0.52677,0.536107,0.54485,0.552972,0.560448,0.567251,0.573357,0.578742,0.583382,0.587256,0.590344,0.592624,0.59408,0.594696,0.594457,0.593352,0.59137,0.588504,0.58475,0.580104,0.574568,0.568146,0.560844,0.552672,0.543644,0.533778,0.523092,0.511611,0.499363,0.486378,0.472691,0.45834,0.443367,0.427816,0.411735,0.395176,0.378193,0.360841,0.343181,0.325274,0.307183,0.288974,0.270714,0.252471,0.234314,0.216311,0.198534,0.18105,0.163929,0.147239,0.131047,0.115419,0.100417,0.086102,0.072533,0.0597651,0.0478501,0.0368357,0.0267658,0.0176792,0.00960949,0.00258421,-0.0033757,-0.00825699,-0.0120553,-0.0147767,-0.0164399,-0.0170791,-0.0167484,-0.0155272,-0.0135293,-0.0109156,-0.00791297,-0.00484058,-0.00213914,-0.000367146,-0
-0.000782242,-0.00117694,-0.0015715,-0.00197872,-0.00213988,-0.00179814,-0.000761696,0.00109535,0.00384635,0.00752572,0.0121399,0.0176754,0.0241048,0.0313909,0.03949,0.0483541,0.0579326,0.0681735,0.0790246,0.0904337,0.10235,0.114722,0.127503,0.140645,0.154101,0.16783,0.181787,0.195934,0.210231,0.22464,0.239126,0.253655,0.268192,0.282706,0.297164,0.311538,0.325797,0.339912,0.353855,0.367598,0.381113,0.394373,0.407351,0.420021,0.432356,0.444329,0.455915,0.467087,0.477818,0.488084,0.497859,0.507116,0.515832,0.523981,0.531539,0.538482,0.544786,0.55043,0.555392,0.559651,0.563187,0.565983,0.568021,0.569285,0.569763,0.569442,0.568311,0.566364,0.563594,0.559998,0.555576,0.550328,0.54426,0.537379,0.529695,0.521221,0.511975,0.501975,0.491244,0.479808,0.467697,0.454941,0.441577,0.427643,0.413179,0.398231,0.382844,0.367068,0.350955,0.334559,0.317935,0.301141,0.284236,0.267281,0.250338,0.233468,0.216733,0.200197,0.183922,0.16797,0.152402,0.137278,0.122656,0.108592,0.0951404,0.0823533,0.0702791,0.0589628,0.048446,0.0387657,0.0299544,0.022039,0.0150408,0.00897382,0.00384465,-0.000349205,-0.00362071,-0.00599524,-0.00751307,-0.00823261,-0.00823454,-0.00762686,-0.00655054,-0.005184,-0.00374012,-0.00243829,-0.00140285,-0.000367146
-0.00274238,-0.001573,-0.000391753,0.000786702,0.00210231,0.00373166,0.00583224,0.00852502,0.0118939,0.0159909,0.0208425,0.0264555,0.0328216,0.0399215,0.0477276,0.0562063,0.0653199,0.0750281,0.0852886,0.0960583,0.107294,0.118952,0.13099,0.143366,0.156039,0.168969,0.182118,0.195447,0.20892,0.222503,0.236161,0.249861,0.263572,0.277261,0.290898,0.304456,0.317903,0.331213,0.344358,0.35731,0.370043,0.382531,0.394747,0.406666,0.418263,0.429511,0.440387,0.450865,0.460921,0.47053,0.479669,0.488314,0.496441,0.504028,0.511053,0.517493,0.523328,0.528538,0.533103,0.537005,0.540226,0.542751,0.544564,0.545654,0.546007,0.545614,0.544466,0.542559,0.539886,0.536448,0.532243,0.527275,0.521548,0.515072,0.507855,0.499912,0.491258,0.481912,0.471895,0.461232,0.449949,0.438077,0.425648,0.412698,0.399263,0.385385,0.371107,0.356471,0.341527,0.326323,0.310908,0.295336,0.27966,0.263933,0.248212,0.232552,0.217008,0.201638,0.186498,0.171641,0.157123,0.142998,0.129316,0.116128,0.103481,0.0914208,0.0799898,0.0692269,0.0591674,0.0498425,0.0412785,0.0334968,0.0265124,0.020334,0.0149623,0.0103893,0.00659721,0.00355622,0.00122313,-0.000460998,-0.00157305,-0.00220975,-0.002488,-0.00254082,-0.00250294,-0.00247406,-0.00244007,-0.00213534
-0.00500384,-0.00198305,0.000788743,0.00341299,0.00602886,0.00878852,0.0118327,0.015278,0.0192137,0.0237031,0.0287872,0.0344879,0.0408126,0.0477567,0.0553064,0.0634408,0.0721338,0.0813554,0.0910727,0.101251,0.111854,0.122846,0.134188,0.145845,0.15778,0.169957,0.18234,0.194894,0.207587,0.220384,0.233254,0.246165,0.259087,0.27199,0.284844,0.297621,0.310294,0.322835,0.335217,0.347414,0.3594,0.37115,0.382639,0.393842,0.404735,0.415293,0.425493,0.435311,0.444725,0.453711,0.462247,0.470311,0.477881,0.484938,0.491459,0.497427,0.50282,0.507623,0.511817,0.515386,0.518314,0.520589,0.522197,0.523127,0.52337,0.522917,0.521761,0.519899,0.517328,0.514046,0.510056,0.505361,0.499966,0.49388,0.487114,0.47968,0.471593,0.462872,0.453536,0.443609,0.433116,0.422084,0.410543,0.398526,0.386067,0.373203,0.359972,0.346416,0.332576,0.318497,0.304224,0.289804,0.275285,0.260715,0.246144,0.231622,0.217199,0.202924,0.188848,0.175019,0.161485,0.148295,0.135493,0.123123,0.111226,0.0998433,0.0890099,0.0787595,0.0691219,0.0601226,0.0517827,0.0441181,0.037139,0.0308488,0.0252439,0.020312,0.0160317,0.0123705,0.0092845,0.00671621,0.00459429,0.00283346,0.00133677,2.04907e-06,-0.00126402,-0.00252012,-0.00375106,-0.00482893
-0.00691976,-0.00214728,0.00211482,0.00604694,0.00981216,0.0135628,0.0174352,0.0215454,0.0259865,0.0308297,0.0361261,0.0419099,0.0482004,0.0550053,0.0623223,0.0701417,0.0784474,0.0872187,0.0964312,0.106058,0.116069,0.126435,0.137123,0.148102,0.159339,0.170802,0.182459,0.194278,0.206228,0.218277,0.230396,0.242555,0.254724,0.266876,0.278981,0.291013,0.302945,0.314751,0.326404,0.33788,0.349153,0.360199,0.370994,0.381514,0.391735,0.401636,0.411193,0.420384,0.429187,0.437581,0.445546,0.45306,0.460105,0.46666,0.472708,0.478231,0.483211,0.487632,0.49148,0.49474,0.497398,0.499443,0.500864,0.501652,0.501798,0.501297,0.500144,0.498334,0.495868,0.492745,0.488967,0.48454,0.479468,0.473762,0.46743,0.460487,0.452945,0.444823,0.43614,0.426916,0.417176,0.406944,0.396249,0.385119,0.373586,0.361683,0.349446,0.336911,0.324117,0.311102,0.297907,0.284575,0.271147,0.257668,0.244181,0.230731,0.217361,0.204116,0.19104,0.178176,0.165567,0.153253,0.141274,0.12967,0.118475,0.107723,0.097446,0.0876718,0.0784247,0.0697255,0.0615902,0.0540303,0.0470512,0.0406525,0.0348266,0.0295581,0.024823,0.0205876,0.0168079,0.0134289,0.0103846,0.00759859,0.00498748,0.00246585,-4.39781e-05,-0.00259865,-0.00522056,-0.00789831
-0.00809,-0.00180551,0.00376896,0.00884832,0.013613,0.0182204,0.0228078,0.0274922,0.0323701,0.0375183,0.042996,0.0488461,0.0550977,0.0617683,0.0688654,0.0763886,0.0843307,0.092679,0.101417,0.110524,0.119977,0.129751,0.13982,0.150156,0.160731,0.171517,0.182483,0.193601,0.204843,0.216179,0.227581,0.239021,0.250471,0.261905,0.273294,0.284614,0.295838,0.30694,0.317897,0.328683,0.339274,0.349648,0.35978,0.369648,0.37923,0.388504,0.397449,0.406043,0.414267,0.4221,0.429524,0.436519,0.443067,0.44915,0.454753,0.459858,0.464451,0.468517,0.472043,0.475016,0.477426,0.479262,0.480514,0.481176,0.481242,0.480705,0.479563,0.477814,0.475458,0.472495,0.46893,0.464767,0.460013,0.454676,0.448767,0.442297,0.435282,0.427736,0.419679,0.411129,0.402109,0.392642,0.382752,0.372467,0.361816,0.350827,0.339534,0.327968,0.316163,0.304156,0.291981,0.279677,0.267281,0.254832,0.242368,0.229927,0.21755,0.205275,0.19314,0.181183,0.169441,0.15795,0.146744,0.135857,0.125318,0.115157,0.105399,0.0960686,0.0871847,0.0787636,0.0708172,0.0633525,0.0563714,0.0498698,0.0438371,0.0382554,0.0330991,0.0283338,0.0239161,0.0197933,0.0159034,0.0121766,0.00853705,0.00490676,0.00121038,-0.00261976,-0.00664287,-0.0109207
-0.00828226,-0.000759267,0.00591646,0.0119662,0.0175762,0.0229065,0.0280954,0.0332607,0.0385017,0.0438994,0.0495185,0.0554088,0.0616071,0.0681388,0.0750195,0.0822563,0.0898498,0.0977945,0.10608,0.114693,0.123615,0.132826,0.142306,0.15203,0.161974,0.172113,0.18242,0.192869,0.203434,0.214088,0.224804,0.235557,0.246319,0.257065,0.267769,0.278406,0.288952,0.299382,0.309672,0.319798,0.329738,0.339469,0.348969,0.358215,0.367187,0.375865,0.384227,0.392255,0.399929,0.407231,0.414142,0.420646,0.426725,0.432365,0.437549,0.442263,0.446495,0.45023,0.453458,0.456168,0.458351,0.459997,0.461099,0.461652,0.461651,0.461092,0.459972,0.458292,0.456052,0.453254,0.449902,0.446001,0.441559,0.436583,0.431085,0.425076,0.41857,0.411581,0.404126,0.396224,0.387894,0.379159,0.37004,0.360561,0.35075,0.340632,0.330236,0.319591,0.308727,0.297675,0.286468,0.275137,0.263717,0.252241,0.240743,0.229257,0.217816,0.206455,0.195207,0.184104,0.173179,0.162461,0.151981,0.141767,0.131844,0.122236,0.112965,0.104049,0.0955046,0.0873431,0.0795725,0.0721965,0.0652135,0.0586165,0.0523924,0.0465216,0.0409772,0.0357244,0.0307207,0.0259152,0.0212492,0.0166568,0.0120663,0.00740203,0.00258624,-0.00246054,-0.00782297,-0.0136021
-0.00736813,0.00112788,0.00868852,0.0155271,0.0218268,0.0277462,0.0334225,0.0389739,0.0445007,0.0500869,0.0558012,0.0616985,0.0678215,0.0742017,0.0808613,0.0878141,0.0950668,0.10262,0.11047,0.118607,0.127019,0.135692,0.144607,0.153744,0.163084,0.172604,0.182279,0.192088,0.202004,0.212005,0.222064,0.232157,0.242259,0.252346,0.262393,0.272377,0.282273,0.292059,0.301711,0.311206,0.320523,0.329639,0.338535,0.347188,0.355579,0.363689,0.371497,0.378987,0.386139,0.392937,0.399364,0.405404,0.411042,0.416264,0.421056,0.425406,0.4293,0.432729,0.435683,0.438151,0.440127,0.441603,0.442574,0.443034,0.442981,0.442412,0.441325,0.439723,0.437605,0.434975,0.431838,0.428199,0.424065,0.419446,0.41435,0.408789,0.402777,0.396326,0.389453,0.382175,0.37451,0.366477,0.358096,0.34939,0.340382,0.331095,0.321554,0.311786,0.301816,0.291673,0.281384,0.270978,0.260483,0.249929,0.239346,0.228761,0.218206,0.207709,0.197298,0.187001,0.176845,0.166856,0.15706,0.147479,0.138134,0.129047,0.120233,0.111707,0.103481,0.0955634,0.0879586,0.0806669,0.073684,0.0670004,0.0606012,0.0544652,0.0485646,0.0428648,0.0373239,0.0318926,0.0265146,0.0211265,0.0156588,0.0100365,0.00417892,-0.00200147,-0.00860341,-0.0157453
-0.00528235,0.00394362,0.012182,0.0196318,0.026468,0.0328443,0.0388949,0.0447367,0.05047,0.0561803,0.0619389,0.0678044,0.0738238,0.0800336,0.0864612,0.0931256,0.100039,0.107207,0.114631,0.122306,0.130225,0.138377,0.146747,0.15532,0.164079,0.173002,0.182071,0.191263,0.200557,0.209929,0.219357,0.228817,0.238286,0.24774,0.257157,0.266514,0.275787,0.284955,0.293995,0.302886,0.311607,0.320136,0.328454,0.336542,0.344379,0.351947,0.359229,0.366207,0.372865,0.379186,0.385155,0.390758,0.395982,0.400812,0.405237,0.409246,0.412828,0.415973,0.418674,0.420923,0.422712,0.424038,0.424894,0.425278,0.425187,0.424621,0.423579,0.422063,0.420075,0.417619,0.414699,0.411322,0.407494,0.403225,0.398524,0.393402,0.38787,0.381943,0.375634,0.368959,0.361934,0.354577,0.346907,0.338942,0.330703,0.322211,0.313488,0.304557,0.29544,0.286162,0.276747,0.26722,0.257604,0.247926,0.23821,0.228481,0.218764,0.209084,0.199465,0.18993,0.180501,0.171201,0.16205,0.153067,0.144268,0.135671,0.127288,0.11913,0.111205,0.103518,0.0960713,0.0888614,0.0818821,0.0751219,0.068564,0.0621863,0.0559606,0.0498522,0.0438202,0.0378165,0.0317865,0.0256691,0.0193962,0.0128932,0.00607825,-0.00114003,-0.00886579,-0.0172218
-0.0019981,0.00774043,0.0164645,0.0243571,0.0315826,0.0382874,0.0446013,0.0506383,0.0564978,0.0622656,0.0680143,0.0738051,0.079688,0.0857034,0.0918825,0.098249,0.104819,0.111603,0.118606,0.125828,0.133265,0.14091,0.148752,0.156779,0.164974,0.173323,0.181806,0.190404,0.199097,0.207864,0.216684,0.225534,0.234394,0.24324,0.252051,0.260805,0.269481,0.278056,0.28651,0.294822,0.302971,0.310939,0.318706,0.326253,0.333562,0.340615,0.347396,0.353889,0.360077,0.365947,0.371484,0.376676,0.381509,0.385972,0.390054,0.393746,0.397039,0.399923,0.402393,0.404443,0.406066,0.407258,0.408017,0.408341,0.408228,0.407677,0.406691,0.405271,0.40342,0.401143,0.398444,0.395329,0.391807,0.387885,0.383573,0.378881,0.37382,0.368402,0.362641,0.35655,0.350145,0.343441,0.336455,0.329203,0.321703,0.313974,0.306035,0.297905,0.289604,0.281153,0.272572,0.263882,0.255104,0.246258,0.237367,0.228451,0.219531,0.210627,0.201759,0.192946,0.184206,0.175558,0.167018,0.1586,0.150319,0.142186,0.134211,0.126401,0.118762,0.111296,0.104,0.0968716,0.0899005,0.083074,0.0763741,0.0697778,0.0632566,0.0567763,0.0502965,0.0437707,0.0371458,0.0303625,0.0233545,0.0160484,0.00836269,0.000206178,-0.00852492,-0.0179504
0.0024878,0.0125461,0.0215809,0.0297595,0.0372348,0.044145,0.0506144,0.0567532,0.0626589,0.0684165,0.0740992,0.0797694,0.0854794,0.0912722,0.0971824,0.103237,0.109455,0.115852,0.122435,0.129208,0.136171,0.143319,0.150645,0.158138,0.165787,0.173578,0.181493,0.189516,0.197629,0.205811,0.214044,0.222307,0.230579,0.23884,0.247068,0.255242,0.263343,0.271349,0.27924,0.286997,0.2946,0.30203,0.309269,0.3163,0.323105,0.329668,0.335973,0.342004,0.347748,0.353192,0.358321,0.363125,0.367592,0.371711,0.375474,0.378872,0.381897,0.384542,0.386802,0.388672,0.390147,0.391226,0.391905,0.392183,0.392061,0.39154,0.390621,0.389306,0.3876,0.385507,0.383033,0.380183,0.376966,0.373389,0.369461,0.365192,0.360592,0.355673,0.350446,0.344924,0.33912,0.333049,0.326724,0.32016,0.313373,0.306378,0.299192,0.291831,0.284313,0.276653,0.26887,0.260981,0.253002,0.244952,0.236848,0.228707,0.220545,0.212379,0.204225,0.196099,0.188015,0.179986,0.172026,0.164146,0.156355,0.148663,0.141077,0.133599,0.126233,0.118978,0.11183,0.104783,0.0978256,0.0909435,0.084118,0.0773255,0.0705373,0.0637197,0.0568332,0.0498326,0.0426668,0.0352781,0.0276025,0.0195688,0.0110977,0.0021007,-0.0075219,-0.0178829
0.0081641,0.0183713,0.0275586,0.0358787,0.0434732,0.0504721,0.0569934,0.0631432,0.0690161,0.0746958,0.0802551,0.085757,0.0912552,0.0967944,0.102412,0.108136,0.113991,0.119993,0.126153,0.132478,0.13897,0.145628,0.152446,0.159419,0.166534,0.17378,0.181143,0.188608,0.196158,0.203774,0.211439,0.219134,0.226839,0.234534,0.2422,0.249816,0.257363,0.264822,0.272172,0.279396,0.286475,0.293391,0.300126,0.306664,0.312988,0.319083,0.324935,0.330529,0.335852,0.340892,0.345637,0.350076,0.354199,0.357998,0.361463,0.364589,0.367367,0.369794,0.371864,0.373573,0.37492,0.375901,0.376516,0.376765,0.376649,0.376168,0.375327,0.374128,0.372575,0.370673,0.368428,0.365846,0.362934,0.359701,0.356154,0.352302,0.348156,0.343726,0.339021,0.334054,0.328836,0.323379,0.317695,0.311798,0.3057,0.299414,0.292954,0.286334,0.279568,0.272669,0.265652,0.258531,0.251319,0.24403,0.236679,0.229278,0.221841,0.21438,0.206908,0.199437,0.191977,0.184539,0.177133,0.169765,0.162443,0.155172,0.147956,0.140796,0.133693,0.126643,0.11964,0.112675,0.105738,0.0988113,0.0918763,0.084909,0.0778808,0.0707586,0.063504,0.0560732,0.048417,0.0404801,0.0322011,0.0235118,0.0143364,0.004591,-0.00581787,-0.0169941
0.0150108,0.0252153,0.0344121,0.0427411,0.0503335,0.0573111,0.0637857,0.0698587,0.0756218,0.0811565,0.0865349,0.0918197,0.0970652,0.102317,0.107615,0.112989,0.118465,0.124061,0.129792,0.135666,0.141689,0.14786,0.154178,0.160637,0.167228,0.173942,0.180766,0.187687,0.194689,0.201756,0.20887,0.216014,0.22317,0.230319,0.237441,0.244519,0.251533,0.258465,0.265295,0.272007,0.278583,0.285005,0.291258,0.297324,0.30319,0.30884,0.314261,0.319439,0.324364,0.329022,0.333404,0.3375,0.341302,0.344801,0.34799,0.350864,0.353417,0.355644,0.357543,0.359111,0.360345,0.361246,0.361813,0.362047,0.36195,0.361524,0.360771,0.359697,0.358305,0.356601,0.35459,0.352279,0.349674,0.346784,0.343616,0.340178,0.33648,0.33253,0.328338,0.323914,0.319268,0.31441,0.309351,0.304101,0.298671,0.293072,0.287315,0.281411,0.275371,0.269206,0.262927,0.256544,0.250069,0.243512,0.236884,0.230193,0.223451,0.216666,0.209848,0.203004,0.196142,0.18927,0.182393,0.175515,0.168642,0.161775,0.154916,0.148062,0.141213,0.134362,0.127502,0.120624,0.113712,0.106753,0.0997237,0.092602,0.0853594,0.0779632,0.0703765,0.0625571,0.0544578,0.0460261,0.0372035,0.0279255,0.018121,0.00771154,-0.00338889,-0.0152746
0.023003,0.0330694,0.0421465,0.050363,0.0578408,0.0646939,0.0710282,0.0769405,0.082519,0.0878429,0.092983,0.0980014,0.102952,0.107883,0.112832,0.117833,0.122912,0.12809,0.133382,0.138801,0.144352,0.150037,0.155858,0.161809,0.167884,0.174075,0.180371,0.18676,0.193227,0.199758,0.206337,0.212947,0.21957,0.22619,0.232787,0.239344,0.245843,0.252267,0.258597,0.264817,0.270909,0.276858,0.282648,0.288264,0.293691,0.298917,0.303928,0.308712,0.313258,0.317556,0.321596,0.325371,0.328871,0.332091,0.335024,0.337665,0.340012,0.342059,0.343805,0.345248,0.346388,0.347225,0.347759,0.347992,0.347927,0.347567,0.346914,0.345974,0.344752,0.343252,0.34148,0.339444,0.337149,0.334602,0.331812,0.328785,0.32553,0.322055,0.318368,0.314477,0.310392,0.30612,0.30167,0.297051,0.292272,0.287341,0.282266,0.277056,0.27172,0.266265,0.260699,0.255031,0.249267,0.243416,0.237484,0.231478,0.225405,0.219271,0.213081,0.20684,0.200554,0.194225,0.187857,0.181452,0.175011,0.168533,0.162018,0.155462,0.148859,0.142204,0.135488,0.128697,0.12182,0.114837,0.10773,0.100473,0.0930398,0.0853983,0.0775128,0.0693431,0.0608444,0.0519669,0.0426556,0.0328501,0.0224845,0.0114866,-0.00022192,-0.0127255
0.0321131,0.0419199,0.0507602,0.058753,0.0660118,0.072644,0.0787495,0.0844208,0.0897426,0.0947916,0.0996369,0.10434,0.108954,0.113526,0.118097,0.1227,0.127362,0.132107,0.13695,0.141905,0.14698,0.152179,0.157503,0.16295,0.168514,0.17419,0.179966,0.185833,0.191778,0.197786,0.203842,0.209931,0.216037,0.222143,0.228231,0.234284,0.240286,0.246219,0.252067,0.257812,0.26344,0.268935,0.274281,0.279466,0.284475,0.289295,0.293916,0.298325,0.302513,0.30647,0.310188,0.31366,0.316878,0.319838,0.322534,0.324962,0.32712,0.329005,0.330615,0.331951,0.333012,0.3338,0.334316,0.334562,0.334542,0.334259,0.333717,0.332921,0.331876,0.330587,0.329061,0.327303,0.32532,0.323119,0.320706,0.318089,0.315274,0.312268,0.30908,0.305715,0.30218,0.298484,0.294632,0.290631,0.286487,0.282207,0.277798,0.273264,0.268612,0.263847,0.258974,0.253998,0.248924,0.243757,0.238499,0.233156,0.22773,0.222224,0.216642,0.210984,0.205253,0.19945,0.193574,0.187625,0.181602,0.175502,0.169321,0.163054,0.156694,0.150233,0.14366,0.136962,0.130125,0.123131,0.115959,0.108586,0.100984,0.0931234,0.0849698,0.0764849,0.0676264,0.0583475,0.048597,0.0383191,0.0274529,0.0159328,0.0036884,-0.00935536
0.0423123,0.0517499,0.0602467,0.0679135,0.0748569,0.0811778,0.086971,0.0923249,0.0973207,0.102033,0.106528,0.110866,0.115101,0.119279,0.12344,0.127619,0.131844,0.136138,0.140519,0.145001,0.149594,0.154302,0.159129,0.164073,0.16913,0.174296,0.17956,0.184913,0.190344,0.19584,0.201386,0.206967,0.212569,0.218175,0.223768,0.229333,0.234853,0.240312,0.245694,0.250982,0.256163,0.26122,0.266142,0.270913,0.275521,0.279955,0.284203,0.288256,0.292105,0.29574,0.299154,0.302342,0.305297,0.308014,0.310491,0.312723,0.31471,0.316449,0.31794,0.319184,0.320182,0.320935,0.321446,0.321718,0.321755,0.321561,0.32114,0.320497,0.319637,0.318567,0.317292,0.315817,0.31415,0.312296,0.310261,0.308053,0.305676,0.303137,0.300442,0.297597,0.294606,0.291476,0.288212,0.284818,0.281298,0.277657,0.273898,0.270025,0.266041,0.26195,0.257752,0.253451,0.249049,0.244546,0.239945,0.235245,0.230448,0.225553,0.220561,0.215469,0.210278,0.204985,0.199587,0.194083,0.188467,0.182735,0.17688,0.170897,0.164776,0.158508,0.15208,0.145479,0.13869,0.131694,0.124472,0.116999,0.109249,0.101194,0.0927997,0.0840313,0.0748486,0.0652081,0.0550625,0.0443602,0.0330462,0.0210611,0.00834222,-0.00517666
0.0535719,0.0625405,0.0705961,0.0778428,0.0843809,0.090306,0.0957083,0.100672,0.105275,0.10959,0.113681,0.117607,0.12142,0.125167,0.128887,0.132615,0.13638,0.140205,0.144109,0.148107,0.15221,0.156423,0.16075,0.165191,0.169743,0.174401,0.179158,0.184005,0.188931,0.193923,0.198969,0.204054,0.209163,0.214282,0.219395,0.224485,0.229538,0.234537,0.239468,0.244315,0.249065,0.253702,0.258214,0.262588,0.266813,0.270878,0.274771,0.278485,0.282011,0.285342,0.28847,0.29139,0.294099,0.296591,0.298865,0.300918,0.302749,0.304358,0.305745,0.306912,0.307861,0.308593,0.309113,0.309423,0.309528,0.309433,0.309143,0.308662,0.307996,0.307151,0.306133,0.304946,0.303598,0.302094,0.30044,0.29864,0.2967,0.294626,0.292422,0.290092,0.28764,0.28507,0.282386,0.27959,0.276684,0.273671,0.270552,0.267328,0.264,0.260568,0.257032,0.253392,0.249647,0.245795,0.241834,0.237764,0.233581,0.229282,0.224866,0.220327,0.215662,0.210868,0.205938,0.200867,0.19565,0.190279,0.184746,0.179043,0.17316,0.167084,0.160804,0.154306,0.147572,0.140585,0.133324,0.125767,0.117888,0.10966,0.101051,0.0920269,0.0825516,0.0725845,0.062082,0.0509973,0.0392806,0.0268788,0.0137365,-0.000204283
0.0658638,0.074272,0.0817965,0.0885358,0.0945851,0.100035,0.104972,0.109477,0.113624,0.117483,0.121117,0.124584,0.127933,0.131212,0.134459,0.137709,0.14099,0.144327,0.147739,0.151241,0.154844,0.158555,0.162378,0.166314,0.170361,0.174515,0.178768,0.183114,0.18754,0.192037,0.196591,0.20119,0.205818,0.210461,0.215105,0.219734,0.224332,0.228886,0.23338,0.237801,0.242133,0.246365,0.250484,0.254477,0.258334,0.262045,0.2656,0.268991,0.272211,0.275252,0.27811,0.28078,0.283257,0.28554,0.287627,0.289515,0.291206,0.292699,0.293997,0.295101,0.296013,0.296737,0.297277,0.297637,0.297822,0.297837,0.297686,0.297376,0.296911,0.296298,0.295543,0.29465,0.293625,0.292474,0.291201,0.289812,0.28831,0.286699,0.284984,0.283167,0.28125,0.279236,0.277127,0.274922,0.272624,0.270231,0.267743,0.265159,0.262477,0.259695,0.256811,0.253821,0.250721,0.247508,0.244178,0.240725,0.237145,0.233432,0.229581,0.225585,0.221438,0.217133,0.212663,0.20802,0.203196,0.198181,0.192967,0.187542,0.181895,0.176015,0.169886,0.163495,0.156824,0.149855,0.142569,0.134942,0.126951,0.118569,0.109767,0.100513,0.0907725,0.080509,0.0696825,0.0582508,0.0461692,0.0333906,0.0198664,0.0055463
0.0791607,0.0869242,0.0938343,0.0999851,0.105467,0.110368,0.114769,0.118749,0.122379,0.125727,0.128853,0.131814,0.134659,0.137433,0.140175,0.142919,0.145693,0.148521,0.151424,0.154416,0.157509,0.16071,0.164024,0.167452,0.170993,0.174643,0.178395,0.182243,0.186176,0.190184,0.194254,0.198374,0.202531,0.206708,0.210894,0.215072,0.219229,0.22335,0.22742,0.231427,0.235357,0.239197,0.242936,0.246563,0.250067,0.253438,0.25667,0.259752,0.262681,0.265448,0.26805,0.270484,0.272745,0.274833,0.276746,0.278485,0.280049,0.28144,0.282661,0.283714,0.284602,0.28533,0.285902,0.286322,0.286596,0.28673,0.286728,0.286596,0.286341,0.285966,0.28548,0.284885,0.284188,0.283394,0.282506,0.281528,0.280465,0.279319,0.278092,0.276786,0.275402,0.273942,0.272404,0.270787,0.269091,0.267314,0.265451,0.263501,0.261459,0.25932,0.25708,0.254732,0.252271,0.24969,0.246982,0.244139,0.241155,0.238021,0.234728,0.231268,0.227633,0.223812,0.219797,0.215577,0.211142,0.206482,0.201585,0.196439,0.191031,0.185348,0.179375,0.173097,0.166497,0.159556,0.152255,0.144573,0.136485,0.127966,0.11899,0.109527,0.0995456,0.0890112,0.0778883,0.066139,0.0537234,0.0406001,0.0267267,0.0120602
0.0934368,0.100477,0.106695,0.112182,0.117023,0.121304,0.125103,0.128495,0.13155,0.134333,0.136902,0.139312,0.141612,0.143846,0.14605,0.148259,0.150502,0.152801,0.155177,0.157645,0.160216,0.162899,0.165697,0.168613,0.171645,0.174791,0.178044,0.181397,0.18484,0.188364,0.191957,0.195606,0.199298,0.20302,0.206757,0.210495,0.21422,0.217919,0.221578,0.225183,0.228723,0.232184,0.235557,0.23883,0.241994,0.24504,0.24796,0.250749,0.253399,0.255906,0.258266,0.260476,0.262535,0.264441,0.266194,0.267795,0.269244,0.270546,0.271702,0.272715,0.273591,0.274333,0.274946,0.275437,0.27581,0.276071,0.276226,0.27628,0.27624,0.276111,0.275899,0.275608,0.275243,0.274809,0.274309,0.273746,0.273124,0.272443,0.271705,0.270911,0.270061,0.269152,0.268184,0.267154,0.266059,0.264894,0.263654,0.262335,0.260929,0.25943,0.257829,0.25612,0.254293,0.25234,0.25025,0.248014,0.245621,0.243061,0.240324,0.237397,0.23427,0.230932,0.22737,0.223572,0.219527,0.215221,0.210642,0.205777,0.20061,0.195129,0.189317,0.183159,0.176638,0.169734,0.162429,0.154703,0.146532,0.137893,0.12876,0.119106,0.108903,0.0981189,0.0867222,0.0746788,0.0619536,0.0485105,0.0343128,0.0193238
0.108667,0.114911,0.120364,0.125115,0.129247,0.132842,0.135975,0.13872,0.141144,0.143309,0.145274,0.14709,0.148805,0.150461,0.152097,0.153744,0.15543,0.157179,0.15901,0.160939,0.162976,0.16513,0.167405,0.169804,0.172324,0.174964,0.177717,0.180577,0.183534,0.186578,0.189699,0.192883,0.196118,0.199391,0.202688,0.205995,0.209299,0.212586,0.215844,0.219058,0.222219,0.225313,0.22833,0.231262,0.234098,0.23683,0.239453,0.241959,0.244343,0.246602,0.248732,0.250731,0.252599,0.254335,0.255939,0.257413,0.25876,0.259982,0.261083,0.262068,0.262941,0.263706,0.264371,0.26494,0.26542,0.265816,0.266135,0.266383,0.266565,0.266687,0.266755,0.266772,0.266744,0.266675,0.266566,0.266421,0.266242,0.266029,0.265783,0.265502,0.265186,0.264831,0.264434,0.26399,0.263495,0.262943,0.262326,0.261637,0.260866,0.260006,0.259045,0.257974,0.256781,0.255454,0.253982,0.252351,0.25055,0.248565,0.246383,0.24399,0.241372,0.238516,0.235409,0.232035,0.228381,0.224433,0.220176,0.215595,0.210675,0.205401,0.199757,0.193726,0.187291,0.180433,0.173135,0.165376,0.157134,0.148387,0.139112,0.129283,0.118875,0.107858,0.0962057,0.0838866,0.0708703,0.0571256,0.0426211,0.0273261
0.124829,0.130207,0.134827,0.138775,0.142132,0.144977,0.147385,0.149425,0.151164,0.152662,0.153975,0.155154,0.156246,0.157291,0.158325,0.159382,0.160488,0.161665,0.162933,0.164307,0.165797,0.167412,0.169155,0.17103,0.173035,0.175166,0.177419,0.179786,0.182258,0.184826,0.187478,0.190203,0.192987,0.195818,0.198683,0.201567,0.204458,0.207342,0.210207,0.213041,0.215832,0.218569,0.221243,0.223843,0.226362,0.228792,0.231126,0.233361,0.23549,0.237512,0.239423,0.241222,0.242909,0.244485,0.24595,0.247308,0.248561,0.249714,0.25077,0.251734,0.252612,0.25341,0.254133,0.254789,0.255382,0.255921,0.256411,0.256858,0.257268,0.257646,0.257999,0.25833,0.258643,0.258942,0.259229,0.259506,0.259773,0.260031,0.260279,0.260515,0.260735,0.260936,0.261112,0.261258,0.261366,0.261428,0.261436,0.261379,0.261247,0.261028,0.260709,0.260278,0.259722,0.259025,0.258173,0.257152,0.255945,0.254538,0.252915,0.251059,0.248955,0.246586,0.243937,0.240992,0.237735,0.234149,0.23022,0.225929,0.221262,0.216203,0.210733,0.204837,0.198498,0.191696,0.184414,0.176632,0.16833,0.159488,0.150082,0.140091,0.12949,0.118255,0.10636,0.0937787,0.0804843,0.0664503,0.0516502,0.0360585
0.1419,0.146347,0.150069,0.153149,0.155669,0.157704,0.159329,0.16061,0.161612,0.162395,0.163012,0.163512,0.163942,0.164341,0.164744,0.165183,0.165683,0.166267,0.166953,0.167755,0.168685,0.16975,0.170953,0.172297,0.173781,0.1754,0.177151,0.179024,0.181013,0.183107,0.185294,0.187563,0.189901,0.192296,0.194734,0.197202,0.199687,0.202177,0.204658,0.20712,0.209551,0.21194,0.214278,0.216556,0.218767,0.220904,0.222961,0.224933,0.226818,0.228611,0.230312,0.23192,0.233436,0.23486,0.236196,0.237446,0.238614,0.239704,0.240723,0.241674,0.242565,0.243402,0.24419,0.244938,0.245652,0.246339,0.247005,0.247656,0.248299,0.248939,0.249581,0.25023,0.250888,0.25156,0.252246,0.252948,0.253667,0.2544,0.255146,0.255901,0.256662,0.257422,0.258176,0.258915,0.259631,0.260313,0.26095,0.261531,0.262042,0.26247,0.262799,0.263015,0.263101,0.26304,0.262816,0.26241,0.261805,0.260983,0.259926,0.258614,0.257031,0.255157,0.252975,0.250467,0.247614,0.244399,0.240805,0.236814,0.232408,0.227571,0.222285,0.216534,0.210298,0.203561,0.196305,0.18851,0.180159,0.17123,0.161705,0.151561,0.140779,0.129335,0.117207,0.104372,0.0908078,0.0764915,0.0614011,0.0455157
0.15986,0.163313,0.166074,0.168227,0.169849,0.171018,0.171804,0.172273,0.172489,0.172509,0.172386,0.172169,0.1719,0.171618,0.171359,0.171152,0.171022,0.170991,0.171076,0.171291,0.171646,0.172149,0.172802,0.173608,0.174565,0.175668,0.176914,0.178293,0.179798,0.181419,0.183143,0.184959,0.186856,0.188819,0.190836,0.192894,0.19498,0.197081,0.199186,0.201283,0.203361,0.20541,0.207421,0.209386,0.211297,0.213149,0.214936,0.216655,0.218301,0.219874,0.221373,0.222798,0.224149,0.22543,0.226643,0.227792,0.228881,0.229917,0.230903,0.231848,0.232757,0.233638,0.234497,0.235343,0.236182,0.237021,0.237867,0.238727,0.239607,0.240512,0.241448,0.242418,0.243426,0.244474,0.245564,0.246696,0.247869,0.249081,0.25033,0.25161,0.252917,0.254243,0.25558,0.256919,0.258248,0.259557,0.260831,0.262057,0.26322,0.264303,0.265289,0.26616,0.266898,0.267484,0.267897,0.268117,0.268124,0.267898,0.267418,0.266662,0.265611,0.264243,0.262539,0.260478,0.258041,0.255207,0.251959,0.248278,0.244144,0.23954,0.234448,0.228851,0.222729,0.216067,0.208846,0.201048,0.192655,0.18365,0.174013,0.163725,0.152768,0.141122,0.128768,0.115685,0.101854,0.0872579,0.0718773,0.0556961
0.178689,0.181089,0.18283,0.183996,0.184664,0.184911,0.184804,0.184412,0.183793,0.183006,0.182101,0.181125,0.180121,0.179127,0.178175,0.177295,0.17651,0.175842,0.175307,0.174918,0.174685,0.174613,0.174706,0.174966,0.175389,0.175972,0.176709,0.177593,0.178613,0.17976,0.181023,0.182389,0.183847,0.185382,0.186982,0.188635,0.190327,0.192046,0.19378,0.195518,0.19725,0.198965,0.200656,0.202314,0.203932,0.205506,0.20703,0.208501,0.209917,0.211276,0.212579,0.213826,0.21502,0.216163,0.217258,0.218311,0.219327,0.220311,0.221271,0.222213,0.223145,0.224074,0.225007,0.225954,0.226921,0.227916,0.228946,0.230018,0.231138,0.232311,0.233544,0.234839,0.236199,0.237628,0.239125,0.24069,0.242322,0.244019,0.245776,0.247587,0.249445,0.251344,0.253271,0.255217,0.25717,0.259114,0.261035,0.262917,0.264742,0.266492,0.268147,0.269686,0.271089,0.272334,0.273398,0.274259,0.274893,0.275278,0.275389,0.275204,0.274699,0.273852,0.27264,0.271041,0.269033,0.266596,0.263708,0.260349,0.2565,0.252141,0.247255,0.241823,0.235826,0.229249,0.222072,0.21428,0.205855,0.19678,0.187039,0.176614,0.165488,0.153644,0.141065,0.127736,0.11364,0.098761,0.0830859,0.0666018